<?xml version="1.0" encoding="UTF-8"?>

<!-- generated on 04/21/20 17:09:59 by Eclipse SUMO GUI Version 1.3.1
<configuration xmlns:xsi="http://www.w3.org/2001/XMLSchema-instance" xsi:noNamespaceSchemaLocation="http://sumo.dlr.de/xsd/sumoConfiguration.xsd">

    <input>
        <net-file value="source/osm/osm.net.xml"/>
        <route-files value="source/osm/osm.passenger.rou.xml,source/osm/osm.truck.rou.xml,source/osm/osm.bus.rou.xml,source/osm/osm.motorcycle.rou.xml,source/osm/osm.bicycle.rou.xml"/>
        <additional-files value="source/osm/osm.poly.xml,source/osm/e2.add.xml"/>
    </input>

    <output>
        <tripinfo-output value="tripinfo.xml"/>
    </output>

    <processing>
        <step-method.ballistic value="true"/>
        <ignore-route-errors value="true"/>
    </processing>

    <report>
        <verbose value="true"/>
        <log value="source/osm/result.xml"/>
        <duration-log.statistics value="true"/>
        <no-step-log value="true"/>
    </report>

    <traci_server>
        <remote-port value="56309"/>
    </traci_server>

    <gui_only>
        <gui-settings-file value="source/osm/osm.view.xml"/>
    </gui_only>

</configuration>
-->

<tripinfos xmlns:xsi="http://www.w3.org/2001/XMLSchema-instance" xsi:noNamespaceSchemaLocation="http://sumo.dlr.de/xsd/tripinfo_file.xsd">
</tripinfos>
