<?xml version="1.0" encoding="UTF-8"?>

<!-- generated on mar 03 dic 2019 16:18:07 -03 by Eclipse SUMO GUI Version 1.3.1
<configuration xmlns:xsi="http://www.w3.org/2001/XMLSchema-instance" xsi:noNamespaceSchemaLocation="http://sumo.dlr.de/xsd/sumoConfiguration.xsd">

    <input>
        <net-file value="MicroDescongest/osm.net.xml"/>
        <route-files value="MicroDescongest/osm.passenger.trips.xml,MicroDescongest/osm.truck.trips.xml,MicroDescongest/osm.bus.trips.xml,MicroDescongest/osm.motorcycle.trips.xml,MicroDescongest/osm.bicycle.trips.xml"/>
        <additional-files value="MicroDescongest/osm.poly.xml,MicroDescongest/e2.add.xml"/>
    </input>

    <output>
        <tripinfo-output value="tripinfo.xml"/>
    </output>

    <processing>
        <step-method.ballistic value="true"/>
        <ignore-route-errors value="true"/>
    </processing>

    <routing>
        <device.rerouting.adaptation-steps value="180"/>
    </routing>

    <report>
        <verbose value="true"/>
        <duration-log.statistics value="true"/>
        <no-step-log value="true"/>
    </report>

    <traci_server>
        <remote-port value="53281"/>
    </traci_server>

    <gui_only>
        <gui-settings-file value="MicroDescongest/osm.view.xml"/>
    </gui_only>

</configuration>
-->

<tripinfos xmlns:xsi="http://www.w3.org/2001/XMLSchema-instance" xsi:noNamespaceSchemaLocation="http://sumo.dlr.de/xsd/tripinfo_file.xsd">
    <tripinfo id="moto0" depart="0.00" departLane="593766961_1" departPos="2.30" departSpeed="0.00" departDelay="0.00" arrival="53.00" arrivalLane="-419814433#1_1" arrivalPos="20.87" arrivalSpeed="12.66" duration="53.00" routeLength="403.45" waitingTime="10.00" waitingCount="2" stopTime="0.00" timeLoss="22.34" rerouteNo="1" devices="tripinfo_moto0 routing_moto0" vType="moto_motorcycle" speedFactor="1.03" vaporized=""/>
    <tripinfo id="truck0" depart="0.00" departLane="6024091#0_1" departPos="7.20" departSpeed="11.24" departDelay="0.00" arrival="67.00" arrivalLane="5955850#2_1" arrivalPos="551.96" arrivalSpeed="13.36" duration="67.00" routeLength="806.38" waitingTime="0.00" waitingCount="0" stopTime="0.00" timeLoss="4.21" rerouteNo="1" devices="tripinfo_truck0 routing_truck0" vType="truck_truck" speedFactor="1.01" vaporized=""/>
    <tripinfo id="bus0" depart="2.00" departLane="6024091#0_1" departPos="12.10" departSpeed="10.17" departDelay="2.00" arrival="71.00" arrivalLane="5955850#2_1" arrivalPos="551.96" arrivalSpeed="13.29" duration="69.00" routeLength="801.48" waitingTime="0.00" waitingCount="0" stopTime="0.00" timeLoss="5.85" rerouteNo="1" devices="tripinfo_bus0 routing_bus0" vType="bus_bus" speedFactor="1.00" vaporized=""/>
    <tripinfo id="veh0" depart="0.00" departLane="642337374#0_2" departPos="5.10" departSpeed="14.72" departDelay="0.00" arrival="84.00" arrivalLane="-5962129#2_1" arrivalPos="29.76" arrivalSpeed="14.31" duration="84.00" routeLength="638.06" waitingTime="21.00" waitingCount="2" stopTime="0.00" timeLoss="39.07" rerouteNo="1" devices="tripinfo_veh0 routing_veh0" vType="veh_passenger" speedFactor="1.06" vaporized=""/>
    <tripinfo id="veh5" depart="25.00" departLane="436291064#0_4" departPos="5.10" departSpeed="0.00" departDelay="-0.41" arrival="103.00" arrivalLane="642751754#1_1" arrivalPos="56.13" arrivalSpeed="14.75" duration="78.00" routeLength="603.88" waitingTime="14.00" waitingCount="1" stopTime="0.00" timeLoss="34.15" rerouteNo="1" devices="tripinfo_veh5 routing_veh5" vType="veh_passenger" speedFactor="1.09" vaporized=""/>
    <tripinfo id="moto4" depart="67.00" departLane="436291016#2_1" departPos="2.30" departSpeed="0.00" departDelay="-0.77" arrival="103.00" arrivalLane="-419814433#2_1" arrivalPos="52.62" arrivalSpeed="10.72" duration="36.00" routeLength="234.47" waitingTime="0.00" waitingCount="0" stopTime="0.00" timeLoss="12.47" rerouteNo="1" devices="tripinfo_moto4 routing_moto4" vType="moto_motorcycle" speedFactor="0.88" vaporized=""/>
    <tripinfo id="bike4" depart="38.00" departLane="436291010_1" departPos="1.70" departSpeed="0.00" departDelay="-0.30" arrival="104.00" arrivalLane="-419814433#0_1" arrivalPos="58.50" arrivalSpeed="5.22" duration="66.00" routeLength="325.95" waitingTime="0.00" waitingCount="0" stopTime="0.00" timeLoss="6.11" rerouteNo="1" devices="tripinfo_bike4 routing_bike4" vType="bike_bicycle" speedFactor="1.02" vaporized=""/>
    <tripinfo id="bike2" depart="19.00" departLane="578942361#2_0" departPos="1.70" departSpeed="0.00" departDelay="-0.15" arrival="114.00" arrivalLane="578942354#0_0" arrivalPos="42.61" arrivalSpeed="4.41" duration="95.00" routeLength="248.16" waitingTime="36.00" waitingCount="2" stopTime="0.00" timeLoss="49.07" rerouteNo="1" devices="tripinfo_bike2 routing_bike2" vType="bike_bicycle" speedFactor="0.90" vaporized=""/>
    <tripinfo id="veh7" depart="35.00" departLane="6024091#0_2" departPos="5.10" departSpeed="11.47" departDelay="-0.58" arrival="131.00" arrivalLane="-593766960_1" arrivalPos="37.96" arrivalSpeed="9.95" duration="96.00" routeLength="849.56" waitingTime="12.00" waitingCount="1" stopTime="0.00" timeLoss="30.71" rerouteNo="1" devices="tripinfo_veh7 routing_veh7" vType="veh_passenger" speedFactor="1.03" vaporized=""/>
    <tripinfo id="moto1" depart="16.00" departLane="36054466#5_1" departPos="2.30" departSpeed="0.00" departDelay="-0.94" arrival="142.00" arrivalLane="36054466#0_1" arrivalPos="39.67" arrivalSpeed="9.30" duration="126.00" routeLength="546.55" waitingTime="55.00" waitingCount="2" stopTime="0.00" timeLoss="73.92" rerouteNo="1" devices="tripinfo_moto1 routing_moto1" vType="moto_motorcycle" speedFactor="0.83" vaporized=""/>
    <tripinfo id="veh2" depart="10.00" departLane="436291016#2_1" departPos="5.10" departSpeed="0.00" departDelay="-0.16" arrival="142.00" arrivalLane="278328405#1_1" arrivalPos="28.73" arrivalSpeed="11.76" duration="132.00" routeLength="551.23" waitingTime="60.00" waitingCount="4" stopTime="0.00" timeLoss="83.66" rerouteNo="1" devices="tripinfo_veh2 routing_veh2" vType="veh_passenger" speedFactor="0.89" vaporized=""/>
    <tripinfo id="bike1" depart="9.00" departLane="-593766964_1" departPos="1.70" departSpeed="0.00" departDelay="-0.58" arrival="146.00" arrivalLane="-578942372#1_0" arrivalPos="9.25" arrivalSpeed="5.47" duration="137.00" routeLength="460.08" waitingTime="34.00" waitingCount="2" stopTime="0.00" timeLoss="52.77" rerouteNo="1" devices="tripinfo_bike1 routing_bike1" vType="bike_bicycle" speedFactor="1.05" vaporized=""/>
    <tripinfo id="bike7" depart="67.00" departLane="578934717#0_0" departPos="1.59" departSpeed="0.00" departDelay="-0.03" arrival="150.00" arrivalLane="578934691#1_0" arrivalPos="33.39" arrivalSpeed="5.32" duration="83.00" routeLength="330.27" waitingTime="9.00" waitingCount="1" stopTime="0.00" timeLoss="21.88" rerouteNo="1" devices="tripinfo_bike7 routing_bike7" vType="bike_bicycle" speedFactor="1.08" vaporized=""/>
    <tripinfo id="moto2" depart="33.00" departLane="5962129#5_1" departPos="2.30" departSpeed="0.00" departDelay="-0.88" arrival="154.00" arrivalLane="5955850#0_1" arrivalPos="73.56" arrivalSpeed="11.07" duration="121.00" routeLength="677.81" waitingTime="36.00" waitingCount="2" stopTime="0.00" timeLoss="64.25" rerouteNo="1" devices="tripinfo_moto2 routing_moto2" vType="moto_motorcycle" speedFactor="0.90" vaporized=""/>
    <tripinfo id="veh3" depart="15.00" departLane="89922370#0_1" departPos="5.10" departSpeed="13.03" departDelay="-0.25" arrival="164.00" arrivalLane="436291016#10_2" arrivalPos="38.29" arrivalSpeed="12.81" duration="149.00" routeLength="919.65" waitingTime="58.00" waitingCount="3" stopTime="0.00" timeLoss="77.33" rerouteNo="1" devices="tripinfo_veh3 routing_veh3" vType="veh_passenger" speedFactor="0.94" vaporized=""/>
    <tripinfo id="moto7" depart="137.00" departLane="593766963_1" departPos="2.30" departSpeed="0.00" departDelay="18.41" arrival="167.00" arrivalLane="436291020#2_1" arrivalPos="7.40" arrivalSpeed="9.48" duration="30.00" routeLength="203.12" waitingTime="5.00" waitingCount="1" stopTime="0.00" timeLoss="11.48" rerouteNo="1" devices="tripinfo_moto7 routing_moto7" vType="moto_motorcycle" speedFactor="0.85" vaporized=""/>
    <tripinfo id="bike10" depart="96.00" departLane="578942372#1_0" departPos="1.70" departSpeed="0.00" departDelay="0.25" arrival="168.00" arrivalLane="578942357_0" arrivalPos="25.21" arrivalSpeed="4.91" duration="72.00" routeLength="343.68" waitingTime="0.00" waitingCount="0" stopTime="0.00" timeLoss="8.30" rerouteNo="1" devices="tripinfo_bike10 routing_bike10" vType="bike_bicycle" speedFactor="0.99" vaporized=""/>
    <tripinfo id="veh10" depart="50.00" departLane="-5955850#2_1" departPos="5.10" departSpeed="15.60" departDelay="-0.82" arrival="169.00" arrivalLane="436291011_3" arrivalPos="66.20" arrivalSpeed="14.43" duration="119.00" routeLength="944.54" waitingTime="35.00" waitingCount="1" stopTime="0.00" timeLoss="53.24" rerouteNo="1" devices="tripinfo_veh10 routing_veh10" vType="veh_passenger" speedFactor="1.12" vaporized=""/>
    <tripinfo id="bus1" depart="25.00" departLane="641705064#0_2" departPos="12.10" departSpeed="0.00" departDelay="-0.41" arrival="170.00" arrivalLane="5955850#2_1" arrivalPos="551.96" arrivalSpeed="13.46" duration="145.00" routeLength="840.84" waitingTime="52.00" waitingCount="2" stopTime="0.00" timeLoss="81.80" rerouteNo="1" devices="tripinfo_bus1 routing_bus1" vType="bus_bus" speedFactor="1.00" vaporized=""/>
    <tripinfo id="truck1" depart="31.00" departLane="641705064#0_2" departPos="7.20" departSpeed="0.00" departDelay="-0.77" arrival="172.00" arrivalLane="5955850#2_1" arrivalPos="551.96" arrivalSpeed="13.98" duration="141.00" routeLength="845.74" waitingTime="43.00" waitingCount="2" stopTime="0.00" timeLoss="80.47" rerouteNo="1" devices="tripinfo_truck1 routing_truck1" vType="truck_truck" speedFactor="1.04" vaporized=""/>
    <tripinfo id="veh4" depart="20.00" departLane="-5955850#2_1" departPos="5.10" departSpeed="11.90" departDelay="-0.33" arrival="176.00" arrivalLane="-5962129#4_1" arrivalPos="6.74" arrivalSpeed="11.85" duration="156.00" routeLength="1276.32" waitingTime="28.00" waitingCount="1" stopTime="0.00" timeLoss="46.97" rerouteNo="1" devices="tripinfo_veh4 routing_veh4" vType="veh_passenger" speedFactor="0.86" vaporized=""/>
    <tripinfo id="veh18" depart="94.00" departLane="5962129#2_1" departPos="5.10" departSpeed="0.00" departDelay="2.52" arrival="178.00" arrivalLane="436291029_1" arrivalPos="42.06" arrivalSpeed="15.08" duration="84.00" routeLength="469.22" waitingTime="31.00" waitingCount="3" stopTime="0.00" timeLoss="52.89" rerouteNo="1" devices="tripinfo_veh18 routing_veh18" vType="veh_passenger" speedFactor="1.16" vaporized=""/>
    <tripinfo id="veh28" depart="142.00" departLane="436291021#0_2" departPos="5.10" departSpeed="15.72" departDelay="-0.31" arrival="181.00" arrivalLane="436291029_1" arrivalPos="42.06" arrivalSpeed="14.65" duration="39.00" routeLength="473.56" waitingTime="0.00" waitingCount="0" stopTime="0.00" timeLoss="7.25" rerouteNo="1" devices="tripinfo_veh28 routing_veh28" vType="veh_passenger" speedFactor="1.13" vaporized=""/>
    <tripinfo id="veh26" depart="132.00" departLane="642337374#0_1" departPos="5.10" departSpeed="12.74" departDelay="-0.14" arrival="188.00" arrivalLane="642751754#0_1" arrivalPos="41.43" arrivalSpeed="11.79" duration="56.00" routeLength="460.56" waitingTime="6.00" waitingCount="1" stopTime="0.00" timeLoss="18.86" rerouteNo="1" devices="tripinfo_veh26 routing_veh26" vType="veh_passenger" speedFactor="0.92" vaporized=""/>
    <tripinfo id="veh12" depart="60.00" departLane="89927838#0_1" departPos="5.10" departSpeed="13.77" departDelay="-0.99" arrival="194.00" arrivalLane="593766962#0_1" arrivalPos="89.84" arrivalSpeed="13.10" duration="134.00" routeLength="560.71" waitingTime="69.00" waitingCount="4" stopTime="0.00" timeLoss="92.32" rerouteNo="1" devices="tripinfo_veh12 routing_veh12" vType="veh_passenger" speedFactor="0.99" vaporized=""/>
    <tripinfo id="bike8" depart="76.00" departLane="-578942367#2_0" departPos="1.70" departSpeed="0.00" departDelay="-0.60" arrival="198.00" arrivalLane="578934712_0" arrivalPos="3.62" arrivalSpeed="5.32" duration="122.00" routeLength="405.41" waitingTime="32.00" waitingCount="3" stopTime="0.00" timeLoss="48.20" rerouteNo="1" devices="tripinfo_bike8 routing_bike8" vType="bike_bicycle" speedFactor="1.12" vaporized=""/>
    <tripinfo id="veh32" depart="162.00" departLane="419814433#0_1" departPos="5.10" departSpeed="13.96" departDelay="-0.64" arrival="202.00" arrivalLane="642361032_1" arrivalPos="73.86" arrivalSpeed="13.75" duration="40.00" routeLength="452.93" waitingTime="0.00" waitingCount="0" stopTime="0.00" timeLoss="6.57" rerouteNo="1" devices="tripinfo_veh32 routing_veh32" vType="veh_passenger" speedFactor="1.01" vaporized=""/>
    <tripinfo id="bike13" depart="124.00" departLane="-578934709#1_0" departPos="1.70" departSpeed="5.04" departDelay="-0.48" arrival="202.00" arrivalLane="-578934700#1_0" arrivalPos="46.44" arrivalSpeed="4.50" duration="78.00" routeLength="284.67" waitingTime="14.00" waitingCount="1" stopTime="0.00" timeLoss="23.44" rerouteNo="1" devices="tripinfo_bike13 routing_bike13" vType="bike_bicycle" speedFactor="0.91" vaporized=""/>
    <tripinfo id="bike15" depart="143.00" departLane="578942372#2_0" departPos="1.70" departSpeed="0.00" departDelay="-0.63" arrival="208.00" arrivalLane="578942362_0" arrivalPos="50.37" arrivalSpeed="5.17" duration="65.00" routeLength="313.86" waitingTime="0.00" waitingCount="0" stopTime="0.00" timeLoss="7.61" rerouteNo="1" devices="tripinfo_bike15 routing_bike15" vType="bike_bicycle" speedFactor="1.04" vaporized=""/>
    <tripinfo id="veh1" depart="5.00" departLane="641705063#3_2" departPos="5.10" departSpeed="0.00" departDelay="-0.08" arrival="209.00" arrivalLane="5955850#2_1" arrivalPos="551.96" arrivalSpeed="12.15" duration="204.00" routeLength="886.16" waitingTime="100.00" waitingCount="4" stopTime="0.00" timeLoss="133.79" rerouteNo="1" devices="tripinfo_veh1 routing_veh1" vType="veh_passenger" speedFactor="0.94" vaporized=""/>
    <tripinfo id="veh33" depart="167.00" departLane="89922370#0_2" departPos="5.10" departSpeed="16.28" departDelay="-0.72" arrival="210.00" arrivalLane="436291031_1" arrivalPos="27.40" arrivalSpeed="15.20" duration="43.00" routeLength="666.81" waitingTime="0.00" waitingCount="0" stopTime="0.00" timeLoss="1.64" rerouteNo="1" devices="tripinfo_veh33 routing_veh33" vType="veh_passenger" speedFactor="1.17" vaporized=""/>
    <tripinfo id="moto6" depart="101.00" departLane="-419814433#4_1" departPos="2.30" departSpeed="0.00" departDelay="-0.65" arrival="213.00" arrivalLane="234953562_2" arrivalPos="63.91" arrivalSpeed="10.58" duration="112.00" routeLength="511.78" waitingTime="47.00" waitingCount="1" stopTime="0.00" timeLoss="62.10" rerouteNo="1" devices="tripinfo_moto6 routing_moto6" vType="moto_motorcycle" speedFactor="0.85" vaporized=""/>
    <tripinfo id="moto9" depart="152.00" departLane="641705063#0_1" departPos="2.30" departSpeed="0.00" departDelay="-0.47" arrival="217.00" arrivalLane="-419814433#0_1" arrivalPos="58.50" arrivalSpeed="13.62" duration="65.00" routeLength="362.32" waitingTime="22.00" waitingCount="2" stopTime="0.00" timeLoss="41.60" rerouteNo="1" devices="tripinfo_moto9 routing_moto9" vType="moto_motorcycle" speedFactor="1.17" vaporized=""/>
    <tripinfo id="veh29" depart="147.00" departLane="419814433#4_1" departPos="5.10" departSpeed="0.00" departDelay="-0.39" arrival="223.00" arrivalLane="641705146#2_2" arrivalPos="169.11" arrivalSpeed="9.28" duration="76.00" routeLength="545.67" waitingTime="6.00" waitingCount="1" stopTime="0.00" timeLoss="24.50" rerouteNo="1" devices="tripinfo_veh29 routing_veh29" vType="veh_passenger" speedFactor="0.93" vaporized=""/>
    <tripinfo id="bike17" depart="162.00" departLane="36054466#5_1" departPos="1.70" departSpeed="0.00" departDelay="-0.78" arrival="223.00" arrivalLane="578934699_0" arrivalPos="20.97" arrivalSpeed="5.07" duration="61.00" routeLength="261.50" waitingTime="3.00" waitingCount="1" stopTime="0.00" timeLoss="12.55" rerouteNo="1" devices="tripinfo_bike17 routing_bike17" vType="bike_bicycle" speedFactor="1.02" vaporized=""/>
    <tripinfo id="bike5" depart="47.00" departLane="-578942367#1_0" departPos="1.70" departSpeed="0.00" departDelay="-0.88" arrival="227.00" arrivalLane="578605861#1_0" arrivalPos="43.40" arrivalSpeed="5.23" duration="180.00" routeLength="539.84" waitingTime="62.00" waitingCount="3" stopTime="0.00" timeLoss="81.69" rerouteNo="1" devices="tripinfo_bike5 routing_bike5" vType="bike_bicycle" speedFactor="0.97" vaporized=""/>
    <tripinfo id="veh19" depart="96.00" departLane="419814433#4_1" departPos="5.10" departSpeed="0.00" departDelay="-0.57" arrival="234.00" arrivalLane="593766962#0_1" arrivalPos="89.84" arrivalSpeed="13.83" duration="138.00" routeLength="608.53" waitingTime="68.00" waitingCount="3" stopTime="0.00" timeLoss="92.09" rerouteNo="1" devices="tripinfo_veh19 routing_veh19" vType="veh_passenger" speedFactor="1.02" vaporized=""/>
    <tripinfo id="bike9" depart="86.00" departLane="578942372#2_0" departPos="1.70" departSpeed="0.00" departDelay="-0.18" arrival="239.00" arrivalLane="-184711452_0" arrivalPos="9.23" arrivalSpeed="4.96" duration="153.00" routeLength="536.37" waitingTime="36.00" waitingCount="2" stopTime="0.00" timeLoss="55.70" rerouteNo="1" devices="tripinfo_bike9 routing_bike9" vType="bike_bicycle" speedFactor="1.02" vaporized=""/>
    <tripinfo id="veh30" depart="152.00" departLane="89927838#3_1" departPos="5.10" departSpeed="0.00" departDelay="-0.47" arrival="241.00" arrivalLane="593766962#0_1" arrivalPos="89.84" arrivalSpeed="4.70" duration="89.00" routeLength="491.99" waitingTime="34.00" waitingCount="2" stopTime="0.00" timeLoss="58.14" rerouteNo="1" devices="tripinfo_veh30 routing_veh30" vType="veh_passenger" speedFactor="1.18" vaporized=""/>
    <tripinfo id="bike12" depart="114.00" departLane="642337374#0_2" departPos="1.70" departSpeed="5.56" departDelay="-0.91" arrival="243.00" arrivalLane="36054466#2_1" arrivalPos="5.99" arrivalSpeed="5.46" duration="129.00" routeLength="407.69" waitingTime="47.00" waitingCount="1" stopTime="0.00" timeLoss="55.15" rerouteNo="1" devices="tripinfo_bike12 routing_bike12" vType="bike_bicycle" speedFactor="0.88" vaporized=""/>
    <tripinfo id="truck3" depart="95.00" departLane="89922370#0_2" departPos="7.20" departSpeed="14.53" departDelay="-0.30" arrival="245.00" arrivalLane="436291016#7_2" arrivalPos="8.35" arrivalSpeed="11.93" duration="150.00" routeLength="846.94" waitingTime="61.00" waitingCount="2" stopTime="0.00" timeLoss="91.06" rerouteNo="1" devices="tripinfo_truck3 routing_truck3" vType="truck_truck" speedFactor="1.05" vaporized=""/>
    <tripinfo id="bus3" depart="76.00" departLane="89922370#0_1" departPos="12.10" departSpeed="13.89" departDelay="-0.24" arrival="246.00" arrivalLane="436291016#7_1" arrivalPos="8.35" arrivalSpeed="12.46" duration="170.00" routeLength="836.90" waitingTime="75.00" waitingCount="3" stopTime="0.00" timeLoss="108.29" rerouteNo="1" devices="tripinfo_bus3 routing_bus3" vType="bus_bus" speedFactor="1.00" vaporized=""/>
    <tripinfo id="veh17" depart="86.00" departLane="-5955850#2_1" departPos="5.10" departSpeed="13.00" departDelay="-0.40" arrival="254.00" arrivalLane="-593766963_1" arrivalPos="7.49" arrivalSpeed="12.77" duration="168.00" routeLength="1212.96" waitingTime="38.00" waitingCount="2" stopTime="0.00" timeLoss="74.06" rerouteNo="1" devices="tripinfo_veh17 routing_veh17" vType="veh_passenger" speedFactor="0.94" vaporized=""/>
    <tripinfo id="veh24" depart="121.00" departLane="-593766960_1" departPos="5.10" departSpeed="0.00" departDelay="-0.98" arrival="254.00" arrivalLane="642361032_1" arrivalPos="73.86" arrivalSpeed="11.46" duration="133.00" routeLength="570.37" waitingTime="58.00" waitingCount="3" stopTime="0.00" timeLoss="80.08" rerouteNo="1" devices="tripinfo_veh24 routing_veh24" vType="veh_passenger" speedFactor="0.83" vaporized=""/>
    <tripinfo id="veh34" depart="172.00" departLane="-5955850#2_1" departPos="5.10" departSpeed="13.82" departDelay="-0.80" arrival="257.00" arrivalLane="436291016#8_3" arrivalPos="7.30" arrivalSpeed="12.89" duration="85.00" routeLength="733.08" waitingTime="22.00" waitingCount="1" stopTime="0.00" timeLoss="31.24" rerouteNo="1" devices="tripinfo_veh34 routing_veh34" vType="veh_passenger" speedFactor="0.99" vaporized=""/>
    <tripinfo id="veh9" depart="45.00" departLane="-5955850#2_1" departPos="5.10" departSpeed="14.54" departDelay="-0.74" arrival="258.00" arrivalLane="36054466#8_1" arrivalPos="8.82" arrivalSpeed="13.69" duration="213.00" routeLength="1188.44" waitingTime="88.00" waitingCount="5" stopTime="0.00" timeLoss="128.92" rerouteNo="1" devices="tripinfo_veh9 routing_veh9" vType="veh_passenger" speedFactor="1.05" vaporized=""/>
    <tripinfo id="bus5" depart="129.00" departLane="-5955850#2_1" departPos="12.10" departSpeed="13.60" departDelay="1.94" arrival="266.00" arrivalLane="436291016#3_2" arrivalPos="23.43" arrivalSpeed="3.66" duration="137.00" routeLength="1022.83" waitingTime="29.00" waitingCount="2" stopTime="0.00" timeLoss="61.55" rerouteNo="1" devices="tripinfo_bus5 routing_bus5" vType="bus_bus" speedFactor="1.00" vaporized=""/>
    <tripinfo id="veh38" depart="193.00" departLane="419814433#0_1" departPos="5.10" departSpeed="15.31" departDelay="-0.13" arrival="270.00" arrivalLane="642361032_1" arrivalPos="73.86" arrivalSpeed="15.05" duration="77.00" routeLength="452.93" waitingTime="28.00" waitingCount="3" stopTime="0.00" timeLoss="46.09" rerouteNo="1" devices="tripinfo_veh38 routing_veh38" vType="veh_passenger" speedFactor="1.10" vaporized=""/>
    <tripinfo id="bike27" depart="261.00" departLane="578934717#0_0" departPos="1.59" departSpeed="0.00" departDelay="2.46" arrival="270.00" arrivalLane="578934717#1_0" arrivalPos="20.89" arrivalSpeed="4.03" duration="9.00" routeLength="25.91" waitingTime="0.00" waitingCount="0" stopTime="0.00" timeLoss="2.40" rerouteNo="0" devices="tripinfo_bike27 routing_bike27" vType="bike_bicycle" speedFactor="0.82" vaporized=""/>
    <tripinfo id="truck5" depart="158.00" departLane="-5955850#2_1" departPos="7.20" departSpeed="14.19" departDelay="-0.83" arrival="273.00" arrivalLane="436291016#3_2" arrivalPos="23.43" arrivalSpeed="3.90" duration="115.00" routeLength="1027.73" waitingTime="6.00" waitingCount="4" stopTime="0.00" timeLoss="40.91" rerouteNo="1" devices="tripinfo_truck5 routing_truck5" vType="truck_truck" speedFactor="1.02" vaporized=""/>
    <tripinfo id="moto10" depart="169.00" departLane="641705063#0_1" departPos="2.30" departSpeed="0.00" departDelay="-0.42" arrival="275.00" arrivalLane="5955850#2_1" arrivalPos="551.96" arrivalSpeed="11.71" duration="106.00" routeLength="1018.13" waitingTime="15.00" waitingCount="1" stopTime="0.00" timeLoss="31.44" rerouteNo="1" devices="tripinfo_moto10 routing_moto10" vType="moto_motorcycle" speedFactor="1.02" vaporized=""/>
    <tripinfo id="veh31" depart="157.00" departLane="-5955850#0_1" departPos="5.10" departSpeed="0.00" departDelay="-0.56" arrival="277.00" arrivalLane="593766961_1" arrivalPos="76.48" arrivalSpeed="15.84" duration="120.00" routeLength="409.08" waitingTime="52.00" waitingCount="3" stopTime="0.00" timeLoss="93.33" rerouteNo="1" devices="tripinfo_veh31 routing_veh31" vType="veh_passenger" speedFactor="1.15" vaporized=""/>
    <tripinfo id="bike20" depart="191.00" departLane="578942354#1_0" departPos="1.70" departSpeed="0.00" departDelay="-0.51" arrival="279.00" arrivalLane="-419814433#4_1" arrivalPos="35.45" arrivalSpeed="5.23" duration="88.00" routeLength="229.82" waitingTime="33.00" waitingCount="2" stopTime="0.00" timeLoss="45.51" rerouteNo="1" devices="tripinfo_bike20 routing_bike20" vType="bike_bicycle" speedFactor="0.94" vaporized=""/>
    <tripinfo id="bus4" depart="101.00" departLane="-5955850#2_1" departPos="12.10" departSpeed="13.89" departDelay="-0.65" arrival="280.00" arrivalLane="593766962#0_1" arrivalPos="89.84" arrivalSpeed="13.40" duration="179.00" routeLength="1047.38" waitingTime="64.00" waitingCount="4" stopTime="0.00" timeLoss="104.04" rerouteNo="1" devices="tripinfo_bus4 routing_bus4" vType="bus_bus" speedFactor="1.00" vaporized=""/>
    <tripinfo id="veh23" depart="116.00" departLane="6024091#5_2" departPos="5.10" departSpeed="0.00" departDelay="-0.90" arrival="281.00" arrivalLane="436291029_1" arrivalPos="42.06" arrivalSpeed="12.27" duration="165.00" routeLength="578.18" waitingTime="93.00" waitingCount="3" stopTime="0.00" timeLoss="113.39" rerouteNo="1" devices="tripinfo_veh23 routing_veh23" vType="veh_passenger" speedFactor="0.89" vaporized=""/>
    <tripinfo id="bike19" depart="191.00" departLane="5962129#1_1" departPos="1.70" departSpeed="0.00" departDelay="9.07" arrival="284.00" arrivalLane="578934702_0" arrivalPos="76.94" arrivalSpeed="4.92" duration="93.00" routeLength="279.33" waitingTime="30.00" waitingCount="1" stopTime="0.00" timeLoss="41.74" rerouteNo="1" devices="tripinfo_bike19 routing_bike19" vType="bike_bicycle" speedFactor="0.97" vaporized=""/>
    <tripinfo id="bike25" depart="239.00" departLane="36054466#3_1" departPos="0.20" departSpeed="0.00" departDelay="-0.39" arrival="287.00" arrivalLane="-578942371#1_0" arrivalPos="7.17" arrivalSpeed="5.31" duration="48.00" routeLength="117.65" waitingTime="14.00" waitingCount="2" stopTime="0.00" timeLoss="25.61" rerouteNo="1" devices="tripinfo_bike25 routing_bike25" vType="bike_bicycle" speedFactor="1.15" vaporized=""/>
    <tripinfo id="bike11" depart="105.00" departLane="184711452_0" departPos="1.70" departSpeed="5.21" departDelay="-0.33" arrival="306.00" arrivalLane="-578934718#3_0" arrivalPos="48.58" arrivalSpeed="4.89" duration="201.00" routeLength="633.87" waitingTime="64.00" waitingCount="3" stopTime="0.00" timeLoss="84.64" rerouteNo="1" devices="tripinfo_bike11 routing_bike11" vType="bike_bicycle" speedFactor="0.94" vaporized=""/>
    <tripinfo id="veh40" depart="203.00" departLane="89927838#0_1" departPos="5.10" departSpeed="12.51" departDelay="-0.30" arrival="309.00" arrivalLane="642361032_1" arrivalPos="73.86" arrivalSpeed="12.26" duration="106.00" routeLength="562.64" waitingTime="36.00" waitingCount="2" stopTime="0.00" timeLoss="60.54" rerouteNo="1" devices="tripinfo_veh40 routing_veh40" vType="veh_passenger" speedFactor="0.90" vaporized=""/>
    <tripinfo id="bike18" depart="172.00" departLane="593766961_1" departPos="1.70" departSpeed="0.00" departDelay="-0.36" arrival="314.00" arrivalLane="578934718#0_0" arrivalPos="16.77" arrivalSpeed="5.01" duration="142.00" routeLength="432.13" waitingTime="44.00" waitingCount="3" stopTime="0.00" timeLoss="63.98" rerouteNo="1" devices="tripinfo_bike18 routing_bike18" vType="bike_bicycle" speedFactor="1.02" vaporized=""/>
    <tripinfo id="veh35" depart="177.00" departLane="6024091#0_2" departPos="5.10" departSpeed="11.40" departDelay="-0.89" arrival="316.00" arrivalLane="593766965_1" arrivalPos="2.11" arrivalSpeed="6.32" duration="139.00" routeLength="531.69" waitingTime="72.00" waitingCount="3" stopTime="0.00" timeLoss="97.20" rerouteNo="1" devices="tripinfo_veh35 routing_veh35" vType="veh_passenger" speedFactor="1.02" vaporized=""/>
    <tripinfo id="moto12" depart="204.00" departLane="89922370#0_1" departPos="2.30" departSpeed="11.49" departDelay="0.70" arrival="321.00" arrivalLane="419814433#1_1" arrivalPos="20.87" arrivalSpeed="13.21" duration="117.00" routeLength="893.24" waitingTime="22.00" waitingCount="3" stopTime="0.00" timeLoss="51.21" rerouteNo="1" devices="tripinfo_moto12 routing_moto12" vType="moto_motorcycle" speedFactor="1.00" vaporized=""/>
    <tripinfo id="truck4" depart="127.00" departLane="-5955850#2_1" departPos="7.20" departSpeed="14.15" departDelay="-0.06" arrival="322.00" arrivalLane="593766962#0_1" arrivalPos="89.84" arrivalSpeed="13.53" duration="195.00" routeLength="1052.28" waitingTime="82.00" waitingCount="4" stopTime="0.00" timeLoss="120.25" rerouteNo="1" devices="tripinfo_truck4 routing_truck4" vType="truck_truck" speedFactor="1.02" vaporized=""/>
    <tripinfo id="moto16" depart="271.00" departLane="436291020#2_1" departPos="2.30" departSpeed="0.00" departDelay="-0.07" arrival="325.00" arrivalLane="642751754#1_1" arrivalPos="56.13" arrivalSpeed="12.84" duration="54.00" routeLength="157.76" waitingTime="38.00" waitingCount="1" stopTime="0.00" timeLoss="42.02" rerouteNo="1" devices="tripinfo_moto16 routing_moto16" vType="moto_motorcycle" speedFactor="1.01" vaporized=""/>
    <tripinfo id="veh48" depart="243.00" departLane="419814433#0_1" departPos="5.10" departSpeed="15.10" departDelay="-0.96" arrival="326.00" arrivalLane="-89927838#0_1" arrivalPos="51.23" arrivalSpeed="14.73" duration="83.00" routeLength="517.72" waitingTime="33.00" waitingCount="1" stopTime="0.00" timeLoss="46.77" rerouteNo="1" devices="tripinfo_veh48 routing_veh48" vType="veh_passenger" speedFactor="1.09" vaporized=""/>
    <tripinfo id="moto15" depart="254.00" departLane="641705063#0_1" departPos="2.30" departSpeed="0.00" departDelay="-0.12" arrival="327.00" arrivalLane="5962129#1_1" arrivalPos="28.66" arrivalSpeed="11.98" duration="73.00" routeLength="417.23" waitingTime="30.00" waitingCount="2" stopTime="0.00" timeLoss="40.95" rerouteNo="1" devices="tripinfo_moto15 routing_moto15" vType="moto_motorcycle" speedFactor="1.00" vaporized=""/>
    <tripinfo id="veh45" depart="228.00" departLane="436291021#0_2" departPos="5.10" departSpeed="14.34" departDelay="-0.71" arrival="341.00" arrivalLane="641705146#2_1" arrivalPos="169.11" arrivalSpeed="10.52" duration="113.00" routeLength="945.25" waitingTime="11.00" waitingCount="2" stopTime="0.00" timeLoss="39.87" rerouteNo="1" devices="tripinfo_veh45 routing_veh45" vType="veh_passenger" speedFactor="1.03" vaporized=""/>