<?xml version="1.0" encoding="UTF-8"?>

<!-- generated on vie 06 dic 2019 11:34:14 -03 by Eclipse SUMO GUI Version 1.3.1
<configuration xmlns:xsi="http://www.w3.org/2001/XMLSchema-instance" xsi:noNamespaceSchemaLocation="http://sumo.dlr.de/xsd/sumoConfiguration.xsd">

    <input>
        <net-file value="source/optimal/optimal3.net.xml"/>
        <route-files value="source/optimal/optimal.passenger.rou.xml,source/optimal/optimal.truck.rou.xml,source/optimal/optimal.bus.rou.xml,source/optimal/optimal.motorcycle.rou.xml,source/optimal/optimal.bicycle.rou.xml"/>
        <additional-files value="source/optimal/e2.add.xml"/>
    </input>

    <output>
        <tripinfo-output value="tripinfo.xml"/>
    </output>

    <processing>
        <step-method.ballistic value="true"/>
        <ignore-route-errors value="true"/>
    </processing>

    <report>
        <verbose value="true"/>
        <log value="source/optimal/result.xml"/>
        <duration-log.statistics value="true"/>
        <no-step-log value="true"/>
    </report>

    <traci_server>
        <remote-port value="53157"/>
    </traci_server>

    <gui_only>
        <gui-settings-file value="source/optimal/optimal.view.xml"/>
    </gui_only>

</configuration>
-->

<tripinfos xmlns:xsi="http://www.w3.org/2001/XMLSchema-instance" xsi:noNamespaceSchemaLocation="http://sumo.dlr.de/xsd/tripinfo_file.xsd">
</tripinfos>
