<?xml version="1.0" encoding="UTF-8"?>

<!-- generated on 12/08/19 14:29:29 by Eclipse SUMO GUI Version 1.3.1
<configuration xmlns:xsi="http://www.w3.org/2001/XMLSchema-instance" xsi:noNamespaceSchemaLocation="http://sumo.dlr.de/xsd/sumoConfiguration.xsd">

    <input>
        <net-file value="source/optimal/optimal3.net.xml"/>
        <route-files value="source/optimal/optimal.passenger.rou.xml,source/optimal/optimal.truck.rou.xml,source/optimal/optimal.bus.rou.xml,source/optimal/optimal.motorcycle.rou.xml,source/optimal/optimal.bicycle.rou.xml"/>
        <additional-files value="source/optimal/e2.add.xml"/>
    </input>

    <output>
        <tripinfo-output value="tripinfo.xml"/>
    </output>

    <processing>
        <step-method.ballistic value="true"/>
        <ignore-route-errors value="true"/>
    </processing>

    <report>
        <verbose value="true"/>
        <log value="source/optimal/result.xml"/>
        <duration-log.statistics value="true"/>
        <no-step-log value="true"/>
    </report>

    <traci_server>
        <remote-port value="49188"/>
    </traci_server>

    <gui_only>
        <gui-settings-file value="source/optimal/optimal.view.xml"/>
    </gui_only>

</configuration>
-->

<tripinfos xmlns:xsi="http://www.w3.org/2001/XMLSchema-instance" xsi:noNamespaceSchemaLocation="http://sumo.dlr.de/xsd/tripinfo_file.xsd">
    <tripinfo id="moto1" depart="16.00" departLane="B3B2_1" departPos="2.30" departSpeed="0.00" departDelay="-0.94" arrival="44.00" arrivalLane="B2C2_1" arrivalPos="79.20" arrivalSpeed="10.38" duration="28.00" routeLength="178.09" waitingTime="0.00" waitingCount="0" stopTime="0.00" timeLoss="11.28" rerouteNo="0" devices="tripinfo_moto1" vType="moto_motorcycle" speedFactor="0.83" vaporized=""/>
    <tripinfo id="bike1" depart="9.00" departLane="B3B2_1" departPos="1.70" departSpeed="0.00" departDelay="-0.58" arrival="46.00" arrivalLane="B2C2_0" arrivalPos="79.20" arrivalSpeed="5.31" duration="37.00" routeLength="178.69" waitingTime="0.00" waitingCount="0" stopTime="0.00" timeLoss="3.87" rerouteNo="0" devices="tripinfo_bike1" vType="bike_bicycle" speedFactor="0.89" vaporized=""/>
    <tripinfo id="veh0" depart="0.00" departLane="D0D1_1" departPos="5.10" departSpeed="14.72" departDelay="0.00" arrival="75.00" arrivalLane="B1A1_0" arrivalPos="89.60" arrivalSpeed="14.46" duration="75.00" routeLength="396.41" waitingTime="31.00" waitingCount="2" stopTime="0.00" timeLoss="47.71" rerouteNo="0" devices="tripinfo_veh0" vType="veh_passenger" speedFactor="1.06" vaporized=""/>
    <tripinfo id="veh5" depart="25.00" departLane="E3D3_0" departPos="5.10" departSpeed="14.26" departDelay="-0.41" arrival="78.00" arrivalLane="B3B4_0" arrivalPos="89.60" arrivalSpeed="13.96" duration="53.00" routeLength="383.45" waitingTime="17.00" waitingCount="1" stopTime="0.00" timeLoss="24.60" rerouteNo="0" devices="tripinfo_veh5" vType="veh_passenger" speedFactor="1.03" vaporized=""/>
    <tripinfo id="veh1" depart="5.00" departLane="E2D2_0" departPos="5.10" departSpeed="13.03" departDelay="-0.08" arrival="112.00" arrivalLane="B1B0_0" arrivalPos="89.60" arrivalSpeed="12.27" duration="107.00" routeLength="496.57" waitingTime="53.00" waitingCount="3" stopTime="0.00" timeLoss="67.92" rerouteNo="0" devices="tripinfo_veh1" vType="veh_passenger" speedFactor="0.94" vaporized=""/>
</tripinfos>
