<?xml version="1.0" encoding="UTF-8"?>

<!-- generated on 04/28/20 20:37:14 by Eclipse SUMO GUI Version 1.3.1
<configuration xmlns:xsi="http://www.w3.org/2001/XMLSchema-instance" xsi:noNamespaceSchemaLocation="http://sumo.dlr.de/xsd/sumoConfiguration.xsd">

    <input>
        <net-file value="source/osm/osm.net.xml"/>
        <route-files value="source/osm/osm.passenger.rou.xml,source/osm/osm.truck.rou.xml,source/osm/osm.bus.rou.xml,source/osm/osm.motorcycle.rou.xml,source/osm/osm.bicycle.rou.xml"/>
        <additional-files value="source/osm/osm.poly.xml,source/osm/e2.add.xml"/>
    </input>

    <output>
        <tripinfo-output value="tripinfo.xml"/>
    </output>

    <processing>
        <step-method.ballistic value="true"/>
        <ignore-route-errors value="true"/>
    </processing>

    <report>
        <verbose value="true"/>
        <log value="source/osm/result.xml"/>
        <duration-log.statistics value="true"/>
        <no-step-log value="true"/>
    </report>

    <traci_server>
        <remote-port value="61206"/>
    </traci_server>

    <gui_only>
        <gui-settings-file value="source/osm/osm.view.xml"/>
    </gui_only>

</configuration>
-->

<tripinfos xmlns:xsi="http://www.w3.org/2001/XMLSchema-instance" xsi:noNamespaceSchemaLocation="http://sumo.dlr.de/xsd/tripinfo_file.xsd">
    <tripinfo id="moto2" depart="27.00" departLane="6024091#0_1" departPos="2.30" departSpeed="11.22" departDelay="-0.08" arrival="46.00" arrivalLane="5955850#1_1" arrivalPos="17.66" arrivalSpeed="12.43" duration="19.00" routeLength="162.12" waitingTime="0.00" waitingCount="0" stopTime="0.00" timeLoss="3.98" rerouteNo="0" devices="tripinfo_moto2" vType="moto_motorcycle" speedFactor="1.00" vaporized=""/>
    <tripinfo id="veh9" depart="37.00" departLane="642337374#0_1" departPos="5.10" departSpeed="15.60" departDelay="-0.64" arrival="79.00" arrivalLane="436291029_1" arrivalPos="105.62" arrivalSpeed="15.27" duration="42.00" routeLength="613.15" waitingTime="0.00" waitingCount="0" stopTime="0.00" timeLoss="1.82" rerouteNo="0" devices="tripinfo_veh9" vType="veh_passenger" speedFactor="1.12" vaporized=""/>
    <tripinfo id="bike4" depart="30.00" departLane="436291016#0_1" departPos="1.70" departSpeed="0.00" departDelay="-0.30" arrival="79.00" arrivalLane="-419814433#1_1" arrivalPos="20.87" arrivalSpeed="5.23" duration="49.00" routeLength="208.16" waitingTime="1.00" waitingCount="1" stopTime="0.00" timeLoss="11.11" rerouteNo="0" devices="tripinfo_bike4" vType="bike_bicycle" speedFactor="1.04" vaporized=""/>
    <tripinfo id="bike0" depart="0.00" departLane="578934718#0_0" departPos="1.70" departSpeed="0.00" departDelay="0.00" arrival="90.00" arrivalLane="-419814433#0_1" arrivalPos="58.50" arrivalSpeed="5.54" duration="90.00" routeLength="362.87" waitingTime="9.00" waitingCount="1" stopTime="0.00" timeLoss="23.59" rerouteNo="0" devices="tripinfo_bike0" vType="bike_bicycle" speedFactor="1.05" vaporized=""/>
    <tripinfo id="veh3" depart="13.00" departLane="36054466#9_1" departPos="5.10" departSpeed="0.00" departDelay="0.45" arrival="91.00" arrivalLane="436291029_1" arrivalPos="105.62" arrivalSpeed="11.91" duration="78.00" routeLength="468.41" waitingTime="24.00" waitingCount="2" stopTime="0.00" timeLoss="38.73" rerouteNo="0" devices="tripinfo_veh3" vType="veh_passenger" speedFactor="0.94" vaporized=""/>
    <tripinfo id="moto4" depart="54.00" departLane="436291016#3_1" departPos="2.30" departSpeed="0.00" departDelay="-0.17" arrival="95.00" arrivalLane="-419814433#2_1" arrivalPos="52.62" arrivalSpeed="6.16" duration="41.00" routeLength="227.35" waitingTime="4.00" waitingCount="1" stopTime="0.00" timeLoss="21.32" rerouteNo="0" devices="tripinfo_moto4" vType="moto_motorcycle" speedFactor="1.00" vaporized=""/>
    <tripinfo id="moto0" depart="0.00" departLane="593766965_1" departPos="2.11" departSpeed="0.00" departDelay="0.00" arrival="97.00" arrivalLane="-419814433#1_1" arrivalPos="20.87" arrivalSpeed="11.83" duration="97.00" routeLength="448.42" waitingTime="44.00" waitingCount="4" stopTime="0.00" timeLoss="63.26" rerouteNo="0" devices="tripinfo_moto0" vType="moto_motorcycle" speedFactor="1.03" vaporized=""/>
    <tripinfo id="bike3" depart="22.00" departLane="623099335_0" departPos="1.70" departSpeed="0.00" departDelay="-0.73" arrival="103.00" arrivalLane="-578934700#0_0" arrivalPos="6.64" arrivalSpeed="4.89" duration="81.00" routeLength="304.19" waitingTime="10.00" waitingCount="1" stopTime="0.00" timeLoss="21.57" rerouteNo="0" devices="tripinfo_bike3" vType="bike_bicycle" speedFactor="0.91" vaporized=""/>
    <tripinfo id="moto1" depart="13.00" departLane="36054466#6_1" departPos="2.30" departSpeed="0.00" departDelay="-0.54" arrival="108.00" arrivalLane="36054466#0_1" arrivalPos="39.67" arrivalSpeed="9.01" duration="95.00" routeLength="526.31" waitingTime="26.00" waitingCount="3" stopTime="0.00" timeLoss="44.76" rerouteNo="0" devices="tripinfo_moto1" vType="moto_motorcycle" speedFactor="0.83" vaporized=""/>
    <tripinfo id="veh17" depart="71.00" departLane="573865733#1_2" departPos="5.10" departSpeed="16.09" departDelay="-0.10" arrival="112.00" arrivalLane="642361032_1" arrivalPos="119.66" arrivalSpeed="15.73" duration="41.00" routeLength="440.40" waitingTime="4.00" waitingCount="1" stopTime="0.00" timeLoss="12.39" rerouteNo="0" devices="tripinfo_veh17" vType="veh_passenger" speedFactor="1.16" vaporized=""/>
    <tripinfo id="bike7" depart="53.00" departLane="578934718#2_0" departPos="1.70" departSpeed="0.00" departDelay="-0.03" arrival="117.00" arrivalLane="578934691#1_0" arrivalPos="33.39" arrivalSpeed="5.16" duration="64.00" routeLength="310.79" waitingTime="0.00" waitingCount="0" stopTime="0.00" timeLoss="7.06" rerouteNo="0" devices="tripinfo_bike7" vType="bike_bicycle" speedFactor="1.02" vaporized=""/>
    <tripinfo id="truck0" depart="0.00" departLane="-5955850#2_1" departPos="7.20" departSpeed="13.96" departDelay="0.00" arrival="120.00" arrivalLane="593766962#0_1" arrivalPos="73.06" arrivalSpeed="13.69" duration="120.00" routeLength="593.38" waitingTime="27.00" waitingCount="1" stopTime="0.00" timeLoss="76.82" rerouteNo="0" devices="tripinfo_truck0" vType="truck_truck" speedFactor="1.01" vaporized=""/>
    <tripinfo id="bus0" depart="2.00" departLane="-5955850#2_1" departPos="12.10" departSpeed="13.46" departDelay="2.00" arrival="122.00" arrivalLane="593766962#0_1" arrivalPos="73.06" arrivalSpeed="13.75" duration="120.00" routeLength="588.48" waitingTime="26.00" waitingCount="1" stopTime="0.00" timeLoss="77.39" rerouteNo="0" devices="tripinfo_bus0" vType="bus_bus" speedFactor="1.00" vaporized=""/>
    <tripinfo id="veh1" depart="4.00" departLane="642337374#0_2" departPos="5.10" departSpeed="13.03" departDelay="-0.18" arrival="129.00" arrivalLane="-5962129#3_1" arrivalPos="38.17" arrivalSpeed="12.88" duration="125.00" routeLength="647.05" waitingTime="51.00" waitingCount="4" stopTime="0.00" timeLoss="73.30" rerouteNo="0" devices="tripinfo_veh1" vType="veh_passenger" speedFactor="0.94" vaporized=""/>
    <tripinfo id="veh19" depart="79.00" departLane="-419814433#4_1" departPos="5.10" departSpeed="0.00" departDelay="-0.47" arrival="134.00" arrivalLane="5955850#2_1" arrivalPos="92.90" arrivalSpeed="13.90" duration="55.00" routeLength="392.89" waitingTime="9.00" waitingCount="2" stopTime="0.00" timeLoss="25.57" rerouteNo="0" devices="tripinfo_veh19" vType="veh_passenger" speedFactor="1.01" vaporized=""/>
    <tripinfo id="veh5" depart="20.00" departLane="89922370#5_1" departPos="5.10" departSpeed="0.00" departDelay="-0.91" arrival="139.00" arrivalLane="436291016#10_2" arrivalPos="38.29" arrivalSpeed="15.11" duration="119.00" routeLength="559.01" waitingTime="46.00" waitingCount="5" stopTime="0.00" timeLoss="80.49" rerouteNo="0" devices="tripinfo_veh5" vType="veh_passenger" speedFactor="1.09" vaporized=""/>
    <tripinfo id="bus1" depart="20.00" departLane="-5955850#2_1" departPos="12.10" departSpeed="13.89" departDelay="-0.41" arrival="150.00" arrivalLane="436291029_1" arrivalPos="105.62" arrivalSpeed="13.32" duration="130.00" routeLength="825.67" waitingTime="29.00" waitingCount="2" stopTime="0.00" timeLoss="68.95" rerouteNo="0" devices="tripinfo_bus1" vType="bus_bus" speedFactor="1.00" vaporized=""/>
    <tripinfo id="veh4" depart="16.00" departLane="436291016#3_1" departPos="5.10" departSpeed="0.00" departDelay="-0.73" arrival="150.00" arrivalLane="278328405#1_1" arrivalPos="28.73" arrivalSpeed="11.22" duration="134.00" routeLength="544.12" waitingTime="58.00" waitingCount="2" stopTime="0.00" timeLoss="84.56" rerouteNo="0" devices="tripinfo_veh4" vType="veh_passenger" speedFactor="0.86" vaporized=""/>
    <tripinfo id="moto6" depart="82.00" departLane="-419814433#4_1" departPos="2.30" departSpeed="0.00" departDelay="0.75" arrival="157.00" arrivalLane="278328405#0_1" arrivalPos="66.05" arrivalSpeed="14.31" duration="75.00" routeLength="358.03" waitingTime="38.00" waitingCount="2" stopTime="0.00" timeLoss="50.28" rerouteNo="0" devices="tripinfo_moto6" vType="moto_motorcycle" speedFactor="1.14" vaporized=""/>
    <tripinfo id="bike8" depart="60.00" departLane="-578942367#2_0" departPos="1.70" departSpeed="0.00" departDelay="-0.60" arrival="157.00" arrivalLane="578934709#1_0" arrivalPos="9.71" arrivalSpeed="5.00" duration="97.00" routeLength="428.05" waitingTime="2.00" waitingCount="2" stopTime="0.00" timeLoss="18.67" rerouteNo="0" devices="tripinfo_bike8" vType="bike_bicycle" speedFactor="0.97" vaporized=""/>
    <tripinfo id="veh6" depart="25.00" departLane="-5955850#2_1" departPos="5.10" departSpeed="14.26" departDelay="-0.09" arrival="160.00" arrivalLane="-5962129#5_1" arrivalPos="13.61" arrivalSpeed="13.16" duration="135.00" routeLength="801.26" waitingTime="33.00" waitingCount="2" stopTime="0.00" timeLoss="78.47" rerouteNo="0" devices="tripinfo_veh6" vType="veh_passenger" speedFactor="1.03" vaporized=""/>
    <tripinfo id="veh7" depart="29.00" departLane="436291062_2" departPos="5.10" departSpeed="0.00" departDelay="-0.28" arrival="163.00" arrivalLane="642751754#1_1" arrivalPos="56.13" arrivalSpeed="14.44" duration="134.00" routeLength="625.73" waitingTime="63.00" waitingCount="3" stopTime="0.00" timeLoss="85.92" rerouteNo="0" devices="tripinfo_veh7" vType="veh_passenger" speedFactor="1.05" vaporized=""/>
    <tripinfo id="veh27" depart="112.00" departLane="419814433#0_1" departPos="5.10" departSpeed="12.94" departDelay="-0.93" arrival="169.00" arrivalLane="642361032_2" arrivalPos="119.66" arrivalSpeed="12.86" duration="57.00" routeLength="498.74" waitingTime="0.00" waitingCount="0" stopTime="0.00" timeLoss="16.99" rerouteNo="0" devices="tripinfo_veh27" vType="veh_passenger" speedFactor="0.93" vaporized=""/>
    <tripinfo id="moto9" depart="122.00" departLane="641705063#3_1" departPos="2.30" departSpeed="0.00" departDelay="0.13" arrival="175.00" arrivalLane="-419814433#0_1" arrivalPos="58.50" arrivalSpeed="12.15" duration="53.00" routeLength="245.37" waitingTime="25.00" waitingCount="2" stopTime="0.00" timeLoss="35.13" rerouteNo="0" devices="tripinfo_moto9" vType="moto_motorcycle" speedFactor="1.08" vaporized=""/>
    <tripinfo id="bike14" depart="106.00" departLane="5962129#1_1" departPos="1.70" departSpeed="0.00" departDelay="-0.06" arrival="176.00" arrivalLane="578934716_0" arrivalPos="26.75" arrivalSpeed="4.99" duration="70.00" routeLength="337.37" waitingTime="0.00" waitingCount="0" stopTime="0.00" timeLoss="8.25" rerouteNo="0" devices="tripinfo_bike14" vType="bike_bicycle" speedFactor="0.98" vaporized=""/>
    <tripinfo id="veh21" depart="87.00" departLane="89922370#0_1" departPos="5.10" departSpeed="12.36" departDelay="-0.83" arrival="181.00" arrivalLane="642337372_1" arrivalPos="105.65" arrivalSpeed="9.22" duration="94.00" routeLength="600.05" waitingTime="33.00" waitingCount="1" stopTime="0.00" timeLoss="42.60" rerouteNo="0" devices="tripinfo_veh21" vType="veh_passenger" speedFactor="0.89" vaporized=""/>
    <tripinfo id="veh23" depart="96.00" departLane="642337374#0_1" departPos="5.10" departSpeed="12.12" departDelay="-0.20" arrival="181.00" arrivalLane="642751754#1_1" arrivalPos="56.13" arrivalSpeed="11.72" duration="85.00" routeLength="571.09" waitingTime="18.00" waitingCount="1" stopTime="0.00" timeLoss="36.23" rerouteNo="0" devices="tripinfo_veh23" vType="veh_passenger" speedFactor="0.87" vaporized=""/>
    <tripinfo id="bike1" depart="7.00" departLane="-5955850#0_1" departPos="1.70" departSpeed="0.00" departDelay="-0.58" arrival="185.00" arrivalLane="-578942372#1_0" arrivalPos="9.25" arrivalSpeed="4.51" duration="178.00" routeLength="673.16" waitingTime="32.00" waitingCount="2" stopTime="0.00" timeLoss="53.56" rerouteNo="0" devices="tripinfo_bike1" vType="bike_bicycle" speedFactor="0.89" vaporized=""/>
    <tripinfo id="bike12" depart="90.00" departLane="642337374#1_2" departPos="1.70" departSpeed="0.00" departDelay="-0.91" arrival="185.00" arrivalLane="36054466#3_1" arrivalPos="0.20" arrivalSpeed="5.16" duration="95.00" routeLength="378.25" waitingTime="16.00" waitingCount="1" stopTime="0.00" timeLoss="26.34" rerouteNo="0" devices="tripinfo_bike12" vType="bike_bicycle" speedFactor="0.98" vaporized=""/>
    <tripinfo id="veh31" depart="129.00" departLane="436291021#0_2" departPos="5.10" departSpeed="16.28" departDelay="-0.66" arrival="186.00" arrivalLane="634644489_2" arrivalPos="72.07" arrivalSpeed="16.26" duration="57.00" routeLength="621.93" waitingTime="0.00" waitingCount="0" stopTime="0.00" timeLoss="16.22" rerouteNo="0" devices="tripinfo_veh31" vType="veh_passenger" speedFactor="1.17" vaporized=""/>
    <tripinfo id="bike5" depart="37.00" departLane="-578942367#1_0" departPos="1.70" departSpeed="0.00" departDelay="-0.88" arrival="186.00" arrivalLane="578605861#2_0" arrivalPos="43.21" arrivalSpeed="5.04" duration="149.00" routeLength="607.30" waitingTime="16.00" waitingCount="3" stopTime="0.00" timeLoss="39.23" rerouteNo="0" devices="tripinfo_bike5" vType="bike_bicycle" speedFactor="1.02" vaporized=""/>
    <tripinfo id="veh25" depart="104.00" departLane="436291021#0_2" departPos="5.10" departSpeed="13.18" departDelay="-0.56" arrival="190.00" arrivalLane="436291029_1" arrivalPos="105.62" arrivalSpeed="12.42" duration="86.00" routeLength="528.08" waitingTime="32.00" waitingCount="2" stopTime="0.00" timeLoss="45.13" rerouteNo="0" devices="tripinfo_veh25" vType="veh_passenger" speedFactor="0.95" vaporized=""/>
    <tripinfo id="bike9" depart="68.00" departLane="578942375_0" departPos="1.70" departSpeed="5.23" departDelay="-0.18" arrival="194.00" arrivalLane="-184711460_0" arrivalPos="70.26" arrivalSpeed="5.22" duration="126.00" routeLength="484.13" waitingTime="26.00" waitingCount="1" stopTime="0.00" timeLoss="35.97" rerouteNo="0" devices="tripinfo_bike9" vType="bike_bicycle" speedFactor="0.94" vaporized=""/>
    <tripinfo id="veh28" depart="117.00" departLane="642337374#0_2" departPos="5.10" departSpeed="16.37" departDelay="-0.11" arrival="198.00" arrivalLane="-5962129#0_1" arrivalPos="30.73" arrivalSpeed="15.45" duration="81.00" routeLength="596.26" waitingTime="21.00" waitingCount="2" stopTime="0.00" timeLoss="43.21" rerouteNo="0" devices="tripinfo_veh28" vType="veh_passenger" speedFactor="1.18" vaporized=""/>
    <tripinfo id="moto8" depart="108.00" departLane="36054466#0_1" departPos="2.30" departSpeed="0.00" departDelay="-0.33" arrival="204.00" arrivalLane="436291062_2" arrivalPos="13.24" arrivalSpeed="10.82" duration="96.00" routeLength="300.03" waitingTime="41.00" waitingCount="4" stopTime="0.00" timeLoss="72.88" rerouteNo="0" devices="tripinfo_moto8" vType="moto_motorcycle" speedFactor="0.97" vaporized=""/>
    <tripinfo id="bike10" depart="75.00" departLane="578942374_0" departPos="1.70" departSpeed="0.00" departDelay="-0.75" arrival="205.00" arrivalLane="578942357_0" arrivalPos="25.21" arrivalSpeed="5.21" duration="130.00" routeLength="299.11" waitingTime="62.00" waitingCount="2" stopTime="0.00" timeLoss="75.53" rerouteNo="0" devices="tripinfo_bike10" vType="bike_bicycle" speedFactor="1.06" vaporized=""/>
    <tripinfo id="bike13" depart="98.00" departLane="-578934700#1_0" departPos="1.70" departSpeed="0.00" departDelay="-0.48" arrival="205.00" arrivalLane="-578934709#0_0" arrivalPos="8.02" arrivalSpeed="5.44" duration="107.00" routeLength="236.85" waitingTime="50.00" waitingCount="2" stopTime="0.00" timeLoss="63.14" rerouteNo="0" devices="tripinfo_bike13" vType="bike_bicycle" speedFactor="1.03" vaporized=""/>
    <tripinfo id="veh32" depart="133.00" departLane="436291018_1" departPos="5.10" departSpeed="0.00" departDelay="-0.84" arrival="210.00" arrivalLane="436291016#9_2" arrivalPos="5.16" arrivalSpeed="12.73" duration="77.00" routeLength="458.44" waitingTime="24.00" waitingCount="2" stopTime="0.00" timeLoss="41.41" rerouteNo="0" devices="tripinfo_veh32" vType="veh_passenger" speedFactor="0.99" vaporized=""/>
    <tripinfo id="veh16" depart="66.00" departLane="89922370#0_1" departPos="5.10" departSpeed="13.00" departDelay="-0.92" arrival="211.00" arrivalLane="436291016#9_1" arrivalPos="5.16" arrivalSpeed="12.42" duration="145.00" routeLength="597.84" waitingTime="77.00" waitingCount="3" stopTime="0.00" timeLoss="97.80" rerouteNo="0" devices="tripinfo_veh16" vType="veh_passenger" speedFactor="0.94" vaporized=""/>
    <tripinfo id="veh10" depart="41.00" departLane="6024091#0_2" departPos="5.10" departSpeed="11.08" departDelay="-0.82" arrival="213.00" arrivalLane="-593766960_1" arrivalPos="54.83" arrivalSpeed="12.91" duration="172.00" routeLength="755.16" waitingTime="77.00" waitingCount="6" stopTime="0.00" timeLoss="113.54" rerouteNo="0" devices="tripinfo_veh10" vType="veh_passenger" speedFactor="0.99" vaporized=""/>
    <tripinfo id="veh35" depart="146.00" departLane="642337374#0_2" departPos="5.10" departSpeed="16.39" departDelay="-0.39" arrival="213.00" arrivalLane="419814433#1_1" arrivalPos="20.87" arrivalSpeed="15.39" duration="67.00" routeLength="710.12" waitingTime="0.00" waitingCount="0" stopTime="0.00" timeLoss="21.10" rerouteNo="0" devices="tripinfo_veh35" vType="veh_passenger" speedFactor="1.18" vaporized=""/>
    <tripinfo id="bike15" depart="114.00" departLane="578942374_0" departPos="1.70" departSpeed="0.00" departDelay="0.37" arrival="219.00" arrivalLane="578942362_0" arrivalPos="50.37" arrivalSpeed="2.31" duration="105.00" routeLength="258.40" waitingTime="45.00" waitingCount="2" stopTime="0.00" timeLoss="58.07" rerouteNo="0" devices="tripinfo_bike15" vType="bike_bicycle" speedFactor="1.01" vaporized=""/>
    <tripinfo id="bike11" depart="83.00" departLane="36054466#0_1" departPos="1.70" departSpeed="0.00" departDelay="-0.33" arrival="222.00" arrivalLane="-578934718#3_0" arrivalPos="48.58" arrivalSpeed="5.26" duration="139.00" routeLength="363.18" waitingTime="55.00" waitingCount="3" stopTime="0.00" timeLoss="72.11" rerouteNo="0" devices="tripinfo_bike11" vType="bike_bicycle" speedFactor="0.96" vaporized=""/>
    <tripinfo id="veh36" depart="150.00" departLane="419814433#0_1" departPos="5.10" departSpeed="15.31" departDelay="-0.57" arrival="227.00" arrivalLane="642361032_2" arrivalPos="119.66" arrivalSpeed="14.76" duration="77.00" routeLength="498.74" waitingTime="29.00" waitingCount="2" stopTime="0.00" timeLoss="42.99" rerouteNo="0" devices="tripinfo_veh36" vType="veh_passenger" speedFactor="1.10" vaporized=""/>
    <tripinfo id="veh18" depart="75.00" departLane="-5955850#2_1" departPos="5.10" departSpeed="14.14" departDelay="-0.28" arrival="231.00" arrivalLane="-593766960_1" arrivalPos="54.83" arrivalSpeed="7.80" duration="156.00" routeLength="734.13" waitingTime="51.00" waitingCount="5" stopTime="0.00" timeLoss="103.73" rerouteNo="0" devices="tripinfo_veh18" vType="veh_passenger" speedFactor="1.02" vaporized=""/>
    <tripinfo id="veh15" depart="62.00" departLane="36054466#8_1" departPos="5.10" departSpeed="0.00" departDelay="-0.74" arrival="237.00" arrivalLane="642751754#1_1" arrivalPos="56.13" arrivalSpeed="12.17" duration="175.00" routeLength="450.41" waitingTime="115.00" waitingCount="3" stopTime="0.00" timeLoss="138.41" rerouteNo="0" devices="tripinfo_veh15" vType="veh_passenger" speedFactor="0.94" vaporized=""/>
    <tripinfo id="veh20" depart="114.00" departLane="5962129#5_1" departPos="5.10" departSpeed="0.00" departDelay="30.35" arrival="240.00" arrivalLane="436291029_1" arrivalPos="105.62" arrivalSpeed="12.75" duration="126.00" routeLength="433.23" waitingTime="77.00" waitingCount="2" stopTime="0.00" timeLoss="91.38" rerouteNo="0" devices="tripinfo_veh20" vType="veh_passenger" speedFactor="0.98" vaporized=""/>
    <tripinfo id="moto10" depart="135.00" departLane="641705063#2_2" departPos="2.30" departSpeed="0.00" departDelay="-0.42" arrival="241.00" arrivalLane="5955850#2_1" arrivalPos="92.90" arrivalSpeed="13.39" duration="106.00" routeLength="481.46" waitingTime="36.00" waitingCount="4" stopTime="0.00" timeLoss="73.58" rerouteNo="0" devices="tripinfo_moto10" vType="moto_motorcycle" speedFactor="1.12" vaporized=""/>
    <tripinfo id="truck1" depart="26.00" departLane="-5955850#2_1" departPos="7.20" departSpeed="10.32" departDelay="-0.77" arrival="242.00" arrivalLane="436291029_3" arrivalPos="105.62" arrivalSpeed="14.15" duration="216.00" routeLength="825.42" waitingTime="108.00" waitingCount="5" stopTime="0.00" timeLoss="157.32" rerouteNo="0" devices="tripinfo_truck1" vType="truck_truck" speedFactor="1.04" vaporized=""/>
    <tripinfo id="veh12" depart="50.00" departLane="-5955850#2_1" departPos="5.10" departSpeed="12.87" departDelay="-0.19" arrival="260.00" arrivalLane="36054466#7_1" arrivalPos="9.81" arrivalSpeed="11.97" duration="210.00" routeLength="714.51" waitingTime="107.00" waitingCount="7" stopTime="0.00" timeLoss="151.42" rerouteNo="0" devices="tripinfo_veh12" vType="veh_passenger" speedFactor="0.93" vaporized=""/>
    <tripinfo id="moto11" depart="148.00" departLane="419814433#2_1" departPos="2.30" departSpeed="0.00" departDelay="-0.96" arrival="261.00" arrivalLane="-89927838#0_1" arrivalPos="51.23" arrivalSpeed="13.76" duration="113.00" routeLength="416.25" waitingTime="70.00" waitingCount="3" stopTime="0.00" timeLoss="81.46" rerouteNo="0" devices="tripinfo_moto11" vType="moto_motorcycle" speedFactor="1.02" vaporized=""/>
    <tripinfo id="veh14" depart="58.00" departLane="89927838#3_1" departPos="5.10" departSpeed="0.00" departDelay="-0.55" arrival="263.00" arrivalLane="593766960_1" arrivalPos="54.85" arrivalSpeed="12.10" duration="205.00" routeLength="412.84" waitingTime="139.00" waitingCount="5" stopTime="0.00" timeLoss="169.93" rerouteNo="0" devices="tripinfo_veh14" vType="veh_passenger" speedFactor="0.88" vaporized=""/>
    <tripinfo id="veh43" depart="179.00" departLane="419814433#0_1" departPos="5.10" departSpeed="14.49" departDelay="-0.85" arrival="264.00" arrivalLane="-89927838#0_1" arrivalPos="51.23" arrivalSpeed="13.49" duration="85.00" routeLength="517.72" waitingTime="24.00" waitingCount="3" stopTime="0.00" timeLoss="47.61" rerouteNo="0" devices="tripinfo_veh43" vType="veh_passenger" speedFactor="1.04" vaporized=""/>
    <tripinfo id="moto12" depart="163.00" departLane="89927838#0_1" departPos="2.30" departSpeed="13.71" departDelay="0.50" arrival="265.00" arrivalLane="419814433#1_1" arrivalPos="20.87" arrivalSpeed="13.63" duration="102.00" routeLength="610.71" waitingTime="34.00" waitingCount="2" stopTime="0.00" timeLoss="54.34" rerouteNo="0" devices="tripinfo_moto12" vType="moto_motorcycle" speedFactor="0.99" vaporized=""/>
    <tripinfo id="moto5" depart="67.00" departLane="36054466#0_1" departPos="2.30" departSpeed="0.00" departDelay="-0.71" arrival="266.00" arrivalLane="436291018_2" arrivalPos="14.10" arrivalSpeed="10.28" duration="199.00" routeLength="406.66" waitingTime="132.00" waitingCount="7" stopTime="0.00" timeLoss="164.71" rerouteNo="0" devices="tripinfo_moto5" vType="moto_motorcycle" speedFactor="0.90" vaporized=""/>
    <tripinfo id="veh30" depart="146.00" departLane="36054466#8_1" departPos="5.10" departSpeed="0.00" departDelay="20.53" arrival="267.00" arrivalLane="-89927838#0_1" arrivalPos="51.23" arrivalSpeed="13.24" duration="121.00" routeLength="537.44" waitingTime="53.00" waitingCount="3" stopTime="0.00" timeLoss="78.87" rerouteNo="0" devices="tripinfo_veh30" vType="veh_passenger" speedFactor="1.01" vaporized=""/>
    <tripinfo id="bus8" depart="163.00" departLane="642337374#0_1" departPos="12.10" departSpeed="13.89" departDelay="-0.30" arrival="269.00" arrivalLane="436291029_1" arrivalPos="105.62" arrivalSpeed="13.39" duration="106.00" routeLength="606.15" waitingTime="43.00" waitingCount="2" stopTime="0.00" timeLoss="61.82" rerouteNo="0" devices="tripinfo_bus8" vType="bus_bus" speedFactor="1.00" vaporized=""/>
    <tripinfo id="veh38" depart="158.00" departLane="89927838#0_1" departPos="5.10" departSpeed="12.51" departDelay="-0.93" arrival="272.00" arrivalLane="642361032_1" arrivalPos="119.66" arrivalSpeed="12.38" duration="114.00" routeLength="608.45" waitingTime="39.00" waitingCount="3" stopTime="0.00" timeLoss="63.97" rerouteNo="0" devices="tripinfo_veh38" vType="veh_passenger" speedFactor="0.90" vaporized=""/>
    <tripinfo id="veh45" depart="188.00" departLane="36054466#6_1" departPos="5.10" departSpeed="0.00" departDelay="-0.21" arrival="272.00" arrivalLane="5955850#2_1" arrivalPos="92.90" arrivalSpeed="12.92" duration="84.00" routeLength="457.87" waitingTime="22.00" waitingCount="3" stopTime="0.00" timeLoss="49.41" rerouteNo="0" devices="tripinfo_veh45" vType="veh_passenger" speedFactor="1.00" vaporized=""/>
    <tripinfo id="veh22" depart="92.00" departLane="-593766960_1" departPos="5.10" departSpeed="0.00" departDelay="-0.01" arrival="273.00" arrivalLane="642361032_2" arrivalPos="119.66" arrivalSpeed="10.83" duration="181.00" routeLength="633.06" waitingTime="95.00" waitingCount="5" stopTime="0.00" timeLoss="123.22" rerouteNo="0" devices="tripinfo_veh22" vType="veh_passenger" speedFactor="0.83" vaporized=""/>
    <tripinfo id="veh44" depart="184.00" departLane="642337374#0_2" departPos="5.10" departSpeed="15.11" departDelay="-0.03" arrival="273.00" arrivalLane="36054466#9_1" arrivalPos="9.17" arrivalSpeed="4.70" duration="89.00" routeLength="598.34" waitingTime="30.00" waitingCount="1" stopTime="0.00" timeLoss="49.21" rerouteNo="0" devices="tripinfo_veh44" vType="veh_passenger" speedFactor="1.09" vaporized=""/>
    <tripinfo id="bus4" depart="81.00" departLane="-5955850#2_1" departPos="12.10" departSpeed="13.89" departDelay="-0.65" arrival="275.00" arrivalLane="593766962#0_1" arrivalPos="73.06" arrivalSpeed="13.56" duration="194.00" routeLength="588.48" waitingTime="116.00" waitingCount="6" stopTime="0.00" timeLoss="152.08" rerouteNo="0" devices="tripinfo_bus4" vType="bus_bus" speedFactor="1.00" vaporized=""/>
    <tripinfo id="bike19" depart="186.00" departLane="5962129#5_1" departPos="1.70" departSpeed="0.00" departDelay="42.07" arrival="277.00" arrivalLane="578934702_0" arrivalPos="76.94" arrivalSpeed="5.37" duration="91.00" routeLength="404.25" waitingTime="3.00" waitingCount="1" stopTime="0.00" timeLoss="16.85" rerouteNo="0" devices="tripinfo_bike19" vType="bike_bicycle" speedFactor="1.00" vaporized=""/>
    <tripinfo id="veh29" depart="121.00" departLane="419814433#0_1" departPos="5.10" departSpeed="16.04" departDelay="-0.29" arrival="281.00" arrivalLane="593766962#0_1" arrivalPos="73.06" arrivalSpeed="14.89" duration="160.00" routeLength="399.46" waitingTime="103.00" waitingCount="4" stopTime="0.00" timeLoss="134.50" rerouteNo="0" devices="tripinfo_veh29" vType="veh_passenger" speedFactor="1.15" vaporized=""/>
    <tripinfo id="bus10" depart="204.00" departLane="642337374#0_1" departPos="12.10" departSpeed="13.89" departDelay="-0.12" arrival="281.00" arrivalLane="436291029_1" arrivalPos="105.62" arrivalSpeed="13.60" duration="77.00" routeLength="606.15" waitingTime="23.00" waitingCount="1" stopTime="0.00" timeLoss="33.30" rerouteNo="0" devices="tripinfo_bus10" vType="bus_bus" speedFactor="1.00" vaporized=""/>
    <tripinfo id="bike17" depart="148.00" departLane="36054466#8_1" departPos="1.70" departSpeed="0.00" departDelay="19.22" arrival="282.00" arrivalLane="578934698_0" arrivalPos="56.48" arrivalSpeed="5.10" duration="134.00" routeLength="329.56" waitingTime="60.00" waitingCount="3" stopTime="0.00" timeLoss="74.07" rerouteNo="0" devices="tripinfo_bike17" vType="bike_bicycle" speedFactor="1.09" vaporized=""/>
    <tripinfo id="bike34" depart="260.00" departLane="-5962129#5_1" departPos="1.70" departSpeed="0.00" departDelay="2.43" arrival="285.00" arrivalLane="-5962129#2_1" arrivalPos="29.76" arrivalSpeed="5.30" duration="25.00" routeLength="111.47" waitingTime="0.00" waitingCount="0" stopTime="0.00" timeLoss="3.70" rerouteNo="0" devices="tripinfo_bike34" vType="bike_bicycle" speedFactor="1.04" vaporized=""/>
    <tripinfo id="bike27" depart="204.00" departLane="578934718#2_0" departPos="1.70" departSpeed="0.00" departDelay="-0.54" arrival="286.00" arrivalLane="578934717#0_0" arrivalPos="1.59" arrivalSpeed="5.03" duration="82.00" routeLength="402.78" waitingTime="0.00" waitingCount="0" stopTime="0.00" timeLoss="8.64" rerouteNo="0" devices="tripinfo_bike27" vType="bike_bicycle" speedFactor="1.02" vaporized=""/>
    <tripinfo id="veh24" depart="100.00" departLane="-5955850#2_1" departPos="5.10" departSpeed="12.74" departDelay="-0.38" arrival="288.00" arrivalLane="436291019_1" arrivalPos="24.15" arrivalSpeed="12.45" duration="188.00" routeLength="679.74" waitingTime="103.00" waitingCount="5" stopTime="0.00" timeLoss="134.14" rerouteNo="0" devices="tripinfo_veh24" vType="veh_passenger" speedFactor="0.92" vaporized=""/>