<?xml version="1.0" encoding="UTF-8"?>

<!-- generated on jue 05 dic 2019 16:47:15 -03 by Eclipse SUMO GUI Version 1.3.1
<configuration xmlns:xsi="http://www.w3.org/2001/XMLSchema-instance" xsi:noNamespaceSchemaLocation="http://sumo.dlr.de/xsd/sumoConfiguration.xsd">

    <input>
        <net-file value="source/optimal/optimal3.net.xml"/>
        <route-files value="source/optimal/optimal.passenger.rou.xml,source/optimal/optimal.truck.rou.xml,source/optimal/optimal.bus.rou.xml,source/optimal/optimal.motorcycle.rou.xml,source/optimal/optimal.bicycle.rou.xml"/>
        <additional-files value="source/optimal/e2.add.xml"/>
    </input>

    <output>
        <tripinfo-output value="tripinfo.xml"/>
    </output>

    <processing>
        <step-method.ballistic value="true"/>
        <ignore-route-errors value="true"/>
    </processing>

    <report>
        <verbose value="true"/>
        <log value="source/optimal/result.xml"/>
        <duration-log.statistics value="true"/>
        <no-step-log value="true"/>
    </report>

    <traci_server>
        <remote-port value="41407"/>
    </traci_server>

    <gui_only>
        <gui-settings-file value="source/optimal/optimal.view.xml"/>
    </gui_only>

</configuration>
-->

<tripinfos xmlns:xsi="http://www.w3.org/2001/XMLSchema-instance" xsi:noNamespaceSchemaLocation="http://sumo.dlr.de/xsd/tripinfo_file.xsd">
    <tripinfo id="moto1" depart="13.00" departLane="B3B2_1" departPos="2.30" departSpeed="0.00" departDelay="-0.54" arrival="42.00" arrivalLane="B2C2_1" arrivalPos="79.20" arrivalSpeed="8.58" duration="29.00" routeLength="178.09" waitingTime="0.00" waitingCount="0" stopTime="0.00" timeLoss="11.69" rerouteNo="0" devices="tripinfo_moto1" vType="moto_motorcycle" speedFactor="0.83" vaporized=""/>
    <tripinfo id="bike1" depart="7.00" departLane="B3B2_1" departPos="1.70" departSpeed="0.00" departDelay="-0.58" arrival="45.00" arrivalLane="B2C2_0" arrivalPos="79.20" arrivalSpeed="5.01" duration="38.00" routeLength="178.69" waitingTime="0.00" waitingCount="0" stopTime="0.00" timeLoss="5.11" rerouteNo="0" devices="tripinfo_bike1" vType="bike_bicycle" speedFactor="0.89" vaporized=""/>
    <tripinfo id="veh0" depart="0.00" departLane="D0D1_1" departPos="5.10" departSpeed="14.72" departDelay="0.00" arrival="75.00" arrivalLane="B1A1_0" arrivalPos="89.60" arrivalSpeed="14.46" duration="75.00" routeLength="396.41" waitingTime="31.00" waitingCount="2" stopTime="0.00" timeLoss="47.67" rerouteNo="0" devices="tripinfo_veh0" vType="veh_passenger" speedFactor="1.06" vaporized=""/>
    <tripinfo id="veh5" depart="20.00" departLane="E3D3_0" departPos="5.10" departSpeed="14.26" departDelay="-0.91" arrival="78.00" arrivalLane="B3B4_0" arrivalPos="89.60" arrivalSpeed="13.96" duration="58.00" routeLength="383.45" waitingTime="22.00" waitingCount="1" stopTime="0.00" timeLoss="29.62" rerouteNo="0" devices="tripinfo_veh5" vType="veh_passenger" speedFactor="1.03" vaporized=""/>
    <tripinfo id="veh1" depart="4.00" departLane="E2D2_0" departPos="5.10" departSpeed="13.03" departDelay="-0.18" arrival="111.00" arrivalLane="B1B0_0" arrivalPos="89.60" arrivalSpeed="12.05" duration="107.00" routeLength="496.57" waitingTime="55.00" waitingCount="3" stopTime="0.00" timeLoss="68.29" rerouteNo="0" devices="tripinfo_veh1" vType="veh_passenger" speedFactor="0.94" vaporized=""/>
    <tripinfo id="veh15" depart="62.00" departLane="E3D3_1" departPos="5.10" departSpeed="14.03" departDelay="-0.74" arrival="119.00" arrivalLane="D1D0_0" arrivalPos="89.60" arrivalSpeed="13.39" duration="57.00" routeLength="396.41" waitingTime="18.00" waitingCount="2" stopTime="0.00" timeLoss="27.28" rerouteNo="0" devices="tripinfo_veh15" vType="veh_passenger" speedFactor="1.01" vaporized=""/>
    <tripinfo id="moto6" depart="81.00" departLane="A1B1_1" departPos="2.30" departSpeed="12.70" departDelay="-0.25" arrival="121.00" arrivalLane="B2B3_1" arrivalPos="79.20" arrivalSpeed="10.68" duration="40.00" routeLength="288.65" waitingTime="5.00" waitingCount="1" stopTime="0.00" timeLoss="16.16" rerouteNo="0" devices="tripinfo_moto6" vType="moto_motorcycle" speedFactor="0.91" vaporized=""/>
    <tripinfo id="bike6" depart="46.00" departLane="A1B1_1" departPos="1.70" departSpeed="5.56" departDelay="0.55" arrival="126.00" arrivalLane="B2B3_0" arrivalPos="79.20" arrivalSpeed="5.06" duration="80.00" routeLength="289.25" waitingTime="17.00" waitingCount="2" stopTime="0.00" timeLoss="27.48" rerouteNo="0" devices="tripinfo_bike6" vType="bike_bicycle" speedFactor="1.02" vaporized=""/>
    <tripinfo id="veh7" depart="29.00" departLane="D4D3_0" departPos="5.10" departSpeed="15.60" departDelay="-0.28" arrival="136.00" arrivalLane="D1E1_0" arrivalPos="89.60" arrivalSpeed="15.26" duration="107.00" routeLength="396.41" waitingTime="68.00" waitingCount="2" stopTime="0.00" timeLoss="80.33" rerouteNo="0" devices="tripinfo_veh7" vType="veh_passenger" speedFactor="1.12" vaporized=""/>
    <tripinfo id="veh12" depart="50.00" departLane="B4B3_0" departPos="5.10" departSpeed="13.00" departDelay="-0.19" arrival="136.00" arrivalLane="B2B1_1" arrivalPos="79.20" arrivalSpeed="5.16" duration="86.00" routeLength="284.82" waitingTime="51.00" waitingCount="2" stopTime="0.00" timeLoss="64.55" rerouteNo="0" devices="tripinfo_veh12" vType="veh_passenger" speedFactor="0.94" vaporized=""/>
    <tripinfo id="moto7" depart="94.00" departLane="D0D1_0" departPos="2.30" departSpeed="14.44" departDelay="-0.79" arrival="159.00" arrivalLane="C3B3_0" arrivalPos="79.20" arrivalSpeed="13.01" duration="65.00" routeLength="488.97" waitingTime="20.00" waitingCount="2" stopTime="0.00" timeLoss="30.21" rerouteNo="0" devices="tripinfo_moto7" vType="moto_motorcycle" speedFactor="1.04" vaporized=""/>
    <tripinfo id="moto0" depart="0.00" departLane="C4C3_0" departPos="2.30" departSpeed="14.31" departDelay="0.00" arrival="160.00" arrivalLane="B1A1_0" arrivalPos="89.60" arrivalSpeed="12.25" duration="160.00" routeLength="486.41" waitingTime="116.00" waitingCount="2" stopTime="0.00" timeLoss="124.79" rerouteNo="0" devices="tripinfo_moto0" vType="moto_motorcycle" speedFactor="1.03" vaporized=""/>
    <tripinfo id="veh9" depart="37.00" departLane="D2C2_1" departPos="5.10" departSpeed="0.00" departDelay="-0.64" arrival="163.00" arrivalLane="B1A1_0" arrivalPos="89.60" arrivalSpeed="11.98" duration="126.00" routeLength="374.08" waitingTime="72.00" waitingCount="3" stopTime="0.00" timeLoss="94.72" rerouteNo="0" devices="tripinfo_veh9" vType="veh_passenger" speedFactor="0.93" vaporized=""/>
    <tripinfo id="moto2" depart="27.00" departLane="D2C2_1" departPos="2.30" departSpeed="0.00" departDelay="-0.08" arrival="165.00" arrivalLane="D1D0_1" arrivalPos="89.60" arrivalSpeed="11.95" duration="138.00" routeLength="375.27" waitingTime="68.00" waitingCount="3" stopTime="0.00" timeLoss="107.25" rerouteNo="0" devices="tripinfo_moto2" vType="moto_motorcycle" speedFactor="0.99" vaporized=""/>
    <tripinfo id="veh21" depart="87.00" departLane="E3D3_0" departPos="5.10" departSpeed="13.18" departDelay="-0.83" arrival="169.00" arrivalLane="C3B3_0" arrivalPos="79.20" arrivalSpeed="12.08" duration="82.00" routeLength="284.82" waitingTime="54.00" waitingCount="1" stopTime="0.00" timeLoss="60.08" rerouteNo="0" devices="tripinfo_veh21" vType="veh_passenger" speedFactor="0.95" vaporized=""/>
    <tripinfo id="bike2" depart="16.00" departLane="D2C2_1" departPos="1.70" departSpeed="0.00" departDelay="0.85" arrival="171.00" arrivalLane="D1D0_0" arrivalPos="89.60" arrivalSpeed="5.14" duration="155.00" routeLength="375.87" waitingTime="68.00" waitingCount="3" stopTime="0.00" timeLoss="86.82" rerouteNo="0" devices="tripinfo_bike2" vType="bike_bicycle" speedFactor="1.01" vaporized=""/>
    <tripinfo id="truck0" depart="0.00" departLane="D4D3_0" departPos="7.20" departSpeed="13.96" departDelay="0.00" arrival="173.00" arrivalLane="D2E2_0" arrivalPos="89.60" arrivalSpeed="13.92" duration="173.00" routeLength="858.29" waitingTime="78.00" waitingCount="3" stopTime="0.00" timeLoss="108.83" rerouteNo="0" devices="tripinfo_truck0" vType="truck_truck" speedFactor="1.01" vaporized=""/>
    <tripinfo id="veh22" depart="92.00" departLane="A1B1_0" departPos="5.10" departSpeed="15.72" departDelay="-0.01" arrival="174.00" arrivalLane="D1E1_0" arrivalPos="89.60" arrivalSpeed="14.69" duration="82.00" routeLength="395.38" waitingTime="50.00" waitingCount="1" stopTime="0.00" timeLoss="56.73" rerouteNo="0" devices="tripinfo_veh22" vType="veh_passenger" speedFactor="1.13" vaporized=""/>
    <tripinfo id="veh2" depart="8.00" departLane="B0B1_0" departPos="5.10" departSpeed="13.03" departDelay="-0.36" arrival="186.00" arrivalLane="C2C3_0" arrivalPos="79.20" arrivalSpeed="11.83" duration="178.00" routeLength="376.78" waitingTime="137.00" waitingCount="2" stopTime="0.00" timeLoss="147.60" rerouteNo="0" devices="tripinfo_veh2" vType="veh_passenger" speedFactor="0.94" vaporized=""/>
    <tripinfo id="veh3" depart="13.00" departLane="B0B1_0" departPos="5.10" departSpeed="11.90" departDelay="0.45" arrival="212.00" arrivalLane="C3C4_0" arrivalPos="89.60" arrivalSpeed="11.26" duration="199.00" routeLength="487.34" waitingTime="140.00" waitingCount="3" stopTime="0.00" timeLoss="156.28" rerouteNo="0" devices="tripinfo_veh3" vType="veh_passenger" speedFactor="0.86" vaporized=""/>
    <tripinfo id="veh20" depart="83.00" departLane="D4D3_0" departPos="5.10" departSpeed="12.74" departDelay="-0.65" arrival="212.00" arrivalLane="C1C0_0" arrivalPos="89.60" arrivalSpeed="12.37" duration="129.00" routeLength="487.34" waitingTime="71.00" waitingCount="3" stopTime="0.00" timeLoss="88.57" rerouteNo="0" devices="tripinfo_veh20" vType="veh_passenger" speedFactor="0.92" vaporized=""/>
    <tripinfo id="veh6" depart="25.00" departLane="E1D1_0" departPos="5.10" departSpeed="6.64" departDelay="-0.09" arrival="219.00" arrivalLane="C3C4_0" arrivalPos="89.60" arrivalSpeed="14.33" duration="194.00" routeLength="483.61" waitingTime="122.00" waitingCount="3" stopTime="0.00" timeLoss="159.40" rerouteNo="0" devices="tripinfo_veh6" vType="veh_passenger" speedFactor="1.05" vaporized=""/>
    <tripinfo id="veh26" depart="108.00" departLane="A1B1_0" departPos="5.10" departSpeed="13.96" departDelay="-0.74" arrival="219.00" arrivalLane="D3D4_0" arrivalPos="89.60" arrivalSpeed="13.07" duration="111.00" routeLength="596.73" waitingTime="48.00" waitingCount="3" stopTime="0.00" timeLoss="67.30" rerouteNo="0" devices="tripinfo_veh26" vType="veh_passenger" speedFactor="1.01" vaporized=""/>
    <tripinfo id="veh19" depart="79.00" departLane="C0C1_1" departPos="5.10" departSpeed="12.12" departDelay="-0.47" arrival="220.00" arrivalLane="B2B3_0" arrivalPos="79.20" arrivalSpeed="11.97" duration="141.00" routeLength="374.08" waitingTime="89.00" waitingCount="3" stopTime="0.00" timeLoss="108.62" rerouteNo="0" devices="tripinfo_veh19" vType="veh_passenger" speedFactor="0.87" vaporized=""/>
    <tripinfo id="bike0" depart="1.00" departLane="C4C3_0" departPos="1.70" departSpeed="5.56" departDelay="1.00" arrival="221.00" arrivalLane="B1A1_0" arrivalPos="89.60" arrivalSpeed="5.19" duration="220.00" routeLength="478.81" waitingTime="118.00" waitingCount="3" stopTime="0.00" timeLoss="134.18" rerouteNo="0" devices="tripinfo_bike0" vType="bike_bicycle" speedFactor="1.05" vaporized=""/>
    <tripinfo id="veh8" depart="33.00" departLane="E1D1_0" departPos="5.10" departSpeed="13.77" departDelay="-0.46" arrival="221.00" arrivalLane="C3C4_0" arrivalPos="89.60" arrivalSpeed="13.73" duration="188.00" routeLength="483.61" waitingTime="121.00" waitingCount="3" stopTime="0.00" timeLoss="151.64" rerouteNo="0" devices="tripinfo_veh8" vType="veh_passenger" speedFactor="0.99" vaporized=""/>
    <tripinfo id="veh36" depart="150.00" departLane="E3D3_0" departPos="5.10" departSpeed="15.17" departDelay="-0.57" arrival="221.00" arrivalLane="B1B0_0" arrivalPos="89.60" arrivalSpeed="15.07" duration="71.00" routeLength="596.73" waitingTime="11.00" waitingCount="2" stopTime="0.00" timeLoss="31.30" rerouteNo="0" devices="tripinfo_veh36" vType="veh_passenger" speedFactor="1.09" vaporized=""/>
    <tripinfo id="bike11" depart="83.00" departLane="B4B3_0" departPos="1.70" departSpeed="5.56" departDelay="-0.33" arrival="221.00" arrivalLane="B2A2_0" arrivalPos="89.60" arrivalSpeed="5.46" duration="138.00" routeLength="286.69" waitingTime="76.00" waitingCount="2" stopTime="0.00" timeLoss="86.43" rerouteNo="0" devices="tripinfo_bike11" vType="bike_bicycle" speedFactor="1.04" vaporized=""/>
    <tripinfo id="moto4" depart="54.00" departLane="C1C2_1" departPos="2.30" departSpeed="0.00" departDelay="-0.17" arrival="222.00" arrivalLane="B1A1_1" arrivalPos="89.60" arrivalSpeed="9.80" duration="168.00" routeLength="375.27" waitingTime="94.00" waitingCount="3" stopTime="0.00" timeLoss="134.90" rerouteNo="0" devices="tripinfo_moto4" vType="moto_motorcycle" speedFactor="0.88" vaporized=""/>
    <tripinfo id="bike16" depart="121.00" departLane="C2D2_1" departPos="1.70" departSpeed="0.00" departDelay="-0.21" arrival="222.00" arrivalLane="D3E3_0" arrivalPos="89.60" arrivalSpeed="5.39" duration="101.00" routeLength="277.32" waitingTime="36.00" waitingCount="2" stopTime="0.00" timeLoss="50.27" rerouteNo="0" devices="tripinfo_bike16" vType="bike_bicycle" speedFactor="0.83" vaporized=""/>
    <tripinfo id="veh32" depart="133.00" departLane="A2B2_0" departPos="5.10" departSpeed="15.31" departDelay="-0.84" arrival="223.00" arrivalLane="D1D0_1" arrivalPos="89.60" arrivalSpeed="14.15" duration="90.00" routeLength="483.61" waitingTime="32.00" waitingCount="2" stopTime="0.00" timeLoss="56.87" rerouteNo="0" devices="tripinfo_veh32" vType="veh_passenger" speedFactor="1.10" vaporized=""/>
    <tripinfo id="moto11" depart="148.00" departLane="B4B3_0" departPos="2.30" departSpeed="13.06" departDelay="-0.96" arrival="223.00" arrivalLane="B2A2_0" arrivalPos="89.60" arrivalSpeed="12.24" duration="75.00" routeLength="286.09" waitingTime="43.00" waitingCount="1" stopTime="0.00" timeLoss="51.68" rerouteNo="0" devices="tripinfo_moto11" vType="moto_motorcycle" speedFactor="0.94" vaporized=""/>
    <tripinfo id="bike9" depart="68.00" departLane="D3C3_1" departPos="1.70" departSpeed="0.00" departDelay="-0.18" arrival="223.00" arrivalLane="B1A1_0" arrivalPos="89.60" arrivalSpeed="5.54" duration="155.00" routeLength="469.44" waitingTime="54.00" waitingCount="2" stopTime="0.00" timeLoss="69.78" rerouteNo="0" devices="tripinfo_bike9" vType="bike_bicycle" speedFactor="0.98" vaporized=""/>
    <tripinfo id="bike10" depart="75.00" departLane="D3C3_1" departPos="1.70" departSpeed="0.00" departDelay="-0.75" arrival="224.00" arrivalLane="D1D0_0" arrivalPos="89.60" arrivalSpeed="5.05" duration="149.00" routeLength="476.03" waitingTime="43.00" waitingCount="3" stopTime="0.00" timeLoss="62.44" rerouteNo="0" devices="tripinfo_bike10" vType="bike_bicycle" speedFactor="1.00" vaporized=""/>
    <tripinfo id="veh24" depart="100.00" departLane="B3B2_1" departPos="5.10" departSpeed="0.00" departDelay="-0.38" arrival="225.00" arrivalLane="D1D0_0" arrivalPos="89.60" arrivalSpeed="6.88" duration="125.00" routeLength="474.24" waitingTime="53.00" waitingCount="3" stopTime="0.00" timeLoss="95.02" rerouteNo="0" devices="tripinfo_veh24" vType="veh_passenger" speedFactor="1.18" vaporized=""/>
    <tripinfo id="bike4" depart="30.00" departLane="C1C2_1" departPos="1.70" departSpeed="0.00" departDelay="-0.30" arrival="225.00" arrivalLane="B1A1_0" arrivalPos="89.60" arrivalSpeed="5.16" duration="195.00" routeLength="375.87" waitingTime="108.00" waitingCount="3" stopTime="0.00" timeLoss="126.21" rerouteNo="0" devices="tripinfo_bike4" vType="bike_bicycle" speedFactor="1.03" vaporized=""/>
    <tripinfo id="bike5" depart="37.00" departLane="B2B1_1" departPos="1.70" departSpeed="0.00" departDelay="-0.88" arrival="226.00" arrivalLane="C2C3_0" arrivalPos="79.20" arrivalSpeed="5.17" duration="189.00" routeLength="377.40" waitingTime="103.00" waitingCount="3" stopTime="0.00" timeLoss="120.66" rerouteNo="0" devices="tripinfo_bike5" vType="bike_bicycle" speedFactor="1.00" vaporized=""/>
    <tripinfo id="veh16" depart="66.00" departLane="C3D3_0" departPos="5.10" departSpeed="0.00" departDelay="-0.92" arrival="227.00" arrivalLane="D1D0_0" arrivalPos="89.60" arrivalSpeed="11.28" duration="161.00" routeLength="373.05" waitingTime="112.00" waitingCount="2" stopTime="0.00" timeLoss="132.41" rerouteNo="0" devices="tripinfo_veh16" vType="veh_passenger" speedFactor="0.98" vaporized=""/>
    <tripinfo id="moto5" depart="67.00" departLane="B2B1_1" departPos="2.30" departSpeed="0.00" departDelay="-0.71" arrival="231.00" arrivalLane="C2C3_1" arrivalPos="79.20" arrivalSpeed="9.71" duration="164.00" routeLength="376.80" waitingTime="78.00" waitingCount="3" stopTime="0.00" timeLoss="131.99" rerouteNo="0" devices="tripinfo_moto5" vType="moto_motorcycle" speedFactor="0.91" vaporized=""/>
    <tripinfo id="bike22" depart="167.00" departLane="A2B2_1" departPos="1.70" departSpeed="5.56" departDelay="0.34" arrival="249.00" arrivalLane="B3A3_0" arrivalPos="89.60" arrivalSpeed="5.39" duration="82.00" routeLength="298.04" waitingTime="21.00" waitingCount="1" stopTime="0.00" timeLoss="27.74" rerouteNo="0" devices="tripinfo_bike22" vType="bike_bicycle" speedFactor="1.12" vaporized=""/>
    <tripinfo id="veh10" depart="41.00" departLane="B0B1_0" departPos="5.10" departSpeed="12.20" departDelay="-0.82" arrival="250.00" arrivalLane="B3A3_0" arrivalPos="89.60" arrivalSpeed="7.34" duration="209.00" routeLength="396.41" waitingTime="147.00" waitingCount="3" stopTime="0.00" timeLoss="176.04" rerouteNo="0" devices="tripinfo_veh10" vType="veh_passenger" speedFactor="0.88" vaporized=""/>
    <tripinfo id="veh27" depart="112.00" departLane="A2B2_0" departPos="5.10" departSpeed="16.28" departDelay="-0.93" arrival="261.00" arrivalLane="D1E1_0" arrivalPos="89.60" arrivalSpeed="15.85" duration="149.00" routeLength="487.34" waitingTime="97.00" waitingCount="3" stopTime="0.00" timeLoss="117.12" rerouteNo="0" devices="tripinfo_veh27" vType="veh_passenger" speedFactor="1.17" vaporized=""/>
    <tripinfo id="veh14" depart="58.00" departLane="A3B3_0" departPos="5.10" departSpeed="14.14" departDelay="-0.55" arrival="263.00" arrivalLane="D1E1_0" arrivalPos="89.60" arrivalSpeed="13.91" duration="205.00" routeLength="584.80" waitingTime="138.00" waitingCount="4" stopTime="0.00" timeLoss="162.53" rerouteNo="0" devices="tripinfo_veh14" vType="veh_passenger" speedFactor="1.02" vaporized=""/>
    <tripinfo id="bike23" depart="174.00" departLane="A3B3_0" departPos="1.70" departSpeed="5.56" departDelay="-0.24" arrival="269.00" arrivalLane="B3B2_0" arrivalPos="79.20" arrivalSpeed="5.00" duration="95.00" routeLength="176.13" waitingTime="58.00" waitingCount="1" stopTime="0.00" timeLoss="63.14" rerouteNo="0" devices="tripinfo_bike23" vType="bike_bicycle" speedFactor="1.10" vaporized=""/>
    <tripinfo id="bike3" depart="22.00" departLane="E1D1_0" departPos="1.70" departSpeed="5.56" departDelay="-0.73" arrival="271.00" arrivalLane="B1B2_1" arrivalPos="79.20" arrivalSpeed="4.98" duration="249.00" routeLength="376.45" waitingTime="166.00" waitingCount="3" stopTime="0.00" timeLoss="181.01" rerouteNo="0" devices="tripinfo_bike3" vType="bike_bicycle" speedFactor="1.09" vaporized=""/>
    <tripinfo id="moto3" depart="40.00" departLane="E1D1_0" departPos="2.30" departSpeed="13.02" departDelay="-0.62" arrival="272.00" arrivalLane="B1B2_1" arrivalPos="79.20" arrivalSpeed="11.70" duration="232.00" routeLength="375.85" waitingTime="159.00" waitingCount="3" stopTime="0.00" timeLoss="202.55" rerouteNo="0" devices="tripinfo_moto3" vType="moto_motorcycle" speedFactor="0.94" vaporized=""/>
    <tripinfo id="moto14" depart="189.00" departLane="D4D3_0" departPos="2.30" departSpeed="13.68" departDelay="-0.58" arrival="272.00" arrivalLane="C3C4_1" arrivalPos="89.60" arrivalSpeed="13.07" duration="83.00" routeLength="274.16" waitingTime="38.00" waitingCount="2" stopTime="0.00" timeLoss="61.44" rerouteNo="0" devices="tripinfo_moto14" vType="moto_motorcycle" speedFactor="0.98" vaporized=""/>
    <tripinfo id="veh4" depart="16.00" departLane="D4D3_0" departPos="5.10" departSpeed="15.15" departDelay="-0.73" arrival="274.00" arrivalLane="B1A1_0" arrivalPos="89.60" arrivalSpeed="14.21" duration="258.00" routeLength="583.77" waitingTime="185.00" waitingCount="3" stopTime="0.00" timeLoss="218.42" rerouteNo="0" devices="tripinfo_veh4" vType="veh_passenger" speedFactor="1.09" vaporized=""/>
    <tripinfo id="bike14" depart="106.00" departLane="D4D3_0" departPos="1.70" departSpeed="5.56" departDelay="-0.06" arrival="275.00" arrivalLane="C3C4_0" arrivalPos="89.60" arrivalSpeed="5.02" duration="169.00" routeLength="274.76" waitingTime="109.00" waitingCount="2" stopTime="0.00" timeLoss="119.50" rerouteNo="0" devices="tripinfo_bike14" vType="bike_bicycle" speedFactor="1.02" vaporized=""/>
    <tripinfo id="moto9" depart="122.00" departLane="D3C3_1" departPos="2.30" departSpeed="0.00" departDelay="0.13" arrival="279.00" arrivalLane="B1A1_0" arrivalPos="89.60" arrivalSpeed="13.94" duration="157.00" routeLength="477.04" waitingTime="91.00" waitingCount="3" stopTime="0.00" timeLoss="121.12" rerouteNo="0" devices="tripinfo_moto9" vType="moto_motorcycle" speedFactor="1.02" vaporized=""/>
    <tripinfo id="bike20" depart="151.00" departLane="D1C1_0" departPos="1.70" departSpeed="0.00" departDelay="-0.51" arrival="297.00" arrivalLane="B1B0_0" arrivalPos="89.60" arrivalSpeed="5.51" duration="146.00" routeLength="289.25" waitingTime="80.00" waitingCount="2" stopTime="0.00" timeLoss="93.38" rerouteNo="0" devices="tripinfo_bike20" vType="bike_bicycle" speedFactor="1.01" vaporized=""/>
    <tripinfo id="bike19" depart="143.00" departLane="D4D3_0" departPos="1.70" departSpeed="5.56" departDelay="-0.93" arrival="299.00" arrivalLane="C3C2_1" arrivalPos="79.20" arrivalSpeed="5.29" duration="156.00" routeLength="280.02" waitingTime="93.00" waitingCount="2" stopTime="0.00" timeLoss="105.35" rerouteNo="0" devices="tripinfo_bike19" vType="bike_bicycle" speedFactor="1.06" vaporized=""/>
    <tripinfo id="veh60" depart="250.00" departLane="E2D2_0" departPos="5.10" departSpeed="15.23" departDelay="-0.95" arrival="304.00" arrivalLane="B2B1_0" arrivalPos="79.20" arrivalSpeed="4.98" duration="54.00" routeLength="386.01" waitingTime="15.00" waitingCount="1" stopTime="0.00" timeLoss="28.33" rerouteNo="0" devices="tripinfo_veh60" vType="veh_passenger" speedFactor="1.10" vaporized=""/>
    <tripinfo id="moto16" depart="216.00" departLane="C2D2_1" departPos="2.30" departSpeed="0.00" departDelay="-0.67" arrival="310.00" arrivalLane="D3E3_0" arrivalPos="89.60" arrivalSpeed="13.48" duration="94.00" routeLength="276.72" waitingTime="64.00" waitingCount="2" stopTime="0.00" timeLoss="72.34" rerouteNo="0" devices="tripinfo_moto16" vType="moto_motorcycle" speedFactor="0.98" vaporized=""/>
    <tripinfo id="veh30" depart="125.00" departLane="E3D3_1" departPos="5.10" departSpeed="13.52" departDelay="-0.47" arrival="311.00" arrivalLane="D1D0_0" arrivalPos="89.60" arrivalSpeed="13.10" duration="186.00" routeLength="396.41" waitingTime="133.00" waitingCount="3" stopTime="0.00" timeLoss="156.04" rerouteNo="0" devices="tripinfo_veh30" vType="veh_passenger" speedFactor="0.97" vaporized=""/>
    <tripinfo id="veh25" depart="104.00" departLane="A1B1_1" departPos="5.10" departSpeed="16.04" departDelay="-0.56" arrival="313.00" arrivalLane="B3B4_0" arrivalPos="89.60" arrivalSpeed="15.30" duration="209.00" routeLength="396.41" waitingTime="161.00" waitingCount="3" stopTime="0.00" timeLoss="183.09" rerouteNo="0" devices="tripinfo_veh25" vType="veh_passenger" speedFactor="1.15" vaporized=""/>
    <tripinfo id="moto10" depart="135.00" departLane="D3C3_1" departPos="2.30" departSpeed="0.00" departDelay="-0.42" arrival="313.00" arrivalLane="D1D0_0" arrivalPos="89.60" arrivalSpeed="13.16" duration="178.00" routeLength="475.43" waitingTime="98.00" waitingCount="4" stopTime="0.00" timeLoss="140.79" rerouteNo="0" devices="tripinfo_moto10" vType="moto_motorcycle" speedFactor="0.97" vaporized=""/>
    <tripinfo id="veh58" depart="242.00" departLane="A2B2_0" departPos="5.10" departSpeed="15.26" departDelay="-0.58" arrival="313.00" arrivalLane="D3D4_0" arrivalPos="89.60" arrivalSpeed="14.78" duration="71.00" routeLength="496.57" waitingTime="19.00" waitingCount="2" stopTime="0.00" timeLoss="37.10" rerouteNo="0" devices="tripinfo_veh58" vType="veh_passenger" speedFactor="1.10" vaporized=""/>
    <tripinfo id="veh31" depart="129.00" departLane="B0B1_0" departPos="5.10" departSpeed="16.39" departDelay="-0.66" arrival="316.00" arrivalLane="B2B3_0" arrivalPos="79.20" arrivalSpeed="15.30" duration="187.00" routeLength="284.82" waitingTime="149.00" waitingCount="2" stopTime="0.00" timeLoss="169.14" rerouteNo="0" devices="tripinfo_veh31" vType="veh_passenger" speedFactor="1.18" vaporized=""/>
    <tripinfo id="moto8" depart="108.00" departLane="B2B1_1" departPos="2.30" departSpeed="0.00" departDelay="-0.33" arrival="319.00" arrivalLane="C3C4_1" arrivalPos="89.60" arrivalSpeed="12.16" duration="211.00" routeLength="487.36" waitingTime="113.00" waitingCount="4" stopTime="0.00" timeLoss="174.70" rerouteNo="0" devices="tripinfo_moto8" vType="moto_motorcycle" speedFactor="1.02" vaporized=""/>
    <tripinfo id="veh53" depart="221.00" departLane="A3B3_0" departPos="5.10" departSpeed="14.37" departDelay="-0.67" arrival="319.00" arrivalLane="B1B0_0" arrivalPos="89.60" arrivalSpeed="14.27" duration="98.00" routeLength="383.45" waitingTime="52.00" waitingCount="2" stopTime="0.00" timeLoss="69.98" rerouteNo="0" devices="tripinfo_veh53" vType="veh_passenger" speedFactor="1.03" vaporized=""/>
    <tripinfo id="bike33" depart="250.00" departLane="B2B1_0" departPos="1.70" departSpeed="0.00" departDelay="0.01" arrival="321.00" arrivalLane="B1A1_0" arrivalPos="89.60" arrivalSpeed="5.02" duration="71.00" routeLength="176.13" waitingTime="31.00" waitingCount="1" stopTime="0.00" timeLoss="38.55" rerouteNo="0" devices="tripinfo_bike33" vType="bike_bicycle" speedFactor="1.06" vaporized=""/>
    <tripinfo id="bike34" depart="257.00" departLane="B4B3_0" departPos="1.70" departSpeed="5.56" departDelay="-0.57" arrival="321.00" arrivalLane="B3A3_0" arrivalPos="89.60" arrivalSpeed="5.21" duration="64.00" routeLength="186.53" waitingTime="25.00" waitingCount="1" stopTime="0.00" timeLoss="30.32" rerouteNo="0" devices="tripinfo_bike34" vType="bike_bicycle" speedFactor="1.10" vaporized=""/>
    <tripinfo id="veh29" depart="121.00" departLane="B0B1_0" departPos="5.10" departSpeed="14.16" departDelay="-0.29" arrival="322.00" arrivalLane="B3B4_0" arrivalPos="89.60" arrivalSpeed="14.02" duration="201.00" routeLength="395.38" waitingTime="155.00" waitingCount="2" stopTime="0.00" timeLoss="173.13" rerouteNo="0" devices="tripinfo_veh29" vType="veh_passenger" speedFactor="1.02" vaporized=""/>
    <tripinfo id="bike8" depart="61.00" departLane="B2B1_1" departPos="1.70" departSpeed="0.00" departDelay="0.40" arrival="324.00" arrivalLane="C3C4_0" arrivalPos="89.60" arrivalSpeed="5.26" duration="263.00" routeLength="487.96" waitingTime="149.00" waitingCount="4" stopTime="0.00" timeLoss="174.52" rerouteNo="0" devices="tripinfo_bike8" vType="bike_bicycle" speedFactor="1.15" vaporized=""/>
    <tripinfo id="veh52" depart="217.00" departLane="D0D1_0" departPos="5.10" departSpeed="14.08" departDelay="-0.49" arrival="326.00" arrivalLane="D3D4_0" arrivalPos="89.60" arrivalSpeed="14.04" duration="109.00" routeLength="395.38" waitingTime="74.00" waitingCount="1" stopTime="0.00" timeLoss="80.58" rerouteNo="0" devices="tripinfo_veh52" vType="veh_passenger" speedFactor="1.01" vaporized=""/>
    <tripinfo id="bike18" depart="136.00" departLane="D3D2_0" departPos="1.70" departSpeed="0.00" departDelay="-0.36" arrival="329.00" arrivalLane="C3C4_0" arrivalPos="89.60" arrivalSpeed="5.09" duration="193.00" routeLength="364.52" waitingTime="106.00" waitingCount="3" stopTime="0.00" timeLoss="126.48" rerouteNo="0" devices="tripinfo_bike18" vType="bike_bicycle" speedFactor="1.09" vaporized=""/>
    <tripinfo id="veh28" depart="117.00" departLane="C1D1_1" departPos="5.10" departSpeed="0.00" departDelay="-0.11" arrival="331.00" arrivalLane="C3C4_0" arrivalPos="89.60" arrivalSpeed="9.23" duration="214.00" routeLength="472.63" waitingTime="130.00" waitingCount="4" stopTime="0.00" timeLoss="177.16" rerouteNo="0" devices="tripinfo_veh28" vType="veh_passenger" speedFactor="0.99" vaporized=""/>
    <tripinfo id="bike15" depart="113.00" departLane="D3C3_1" departPos="1.70" departSpeed="0.00" departDelay="-0.63" arrival="349.00" arrivalLane="D1E1_0" arrivalPos="89.60" arrivalSpeed="5.10" duration="236.00" routeLength="479.76" waitingTime="125.00" waitingCount="4" stopTime="0.00" timeLoss="149.08" rerouteNo="0" devices="tripinfo_bike15" vType="bike_bicycle" speedFactor="0.89" vaporized=""/>
    <tripinfo id="veh50" depart="210.00" departLane="B3C3_0" departPos="5.10" departSpeed="0.00" departDelay="0.88" arrival="351.00" arrivalLane="D1E1_0" arrivalPos="89.60" arrivalSpeed="10.31" duration="141.00" routeLength="474.24" waitingTime="63.00" waitingCount="3" stopTime="0.00" timeLoss="100.26" rerouteNo="0" devices="tripinfo_veh50" vType="veh_passenger" speedFactor="0.89" vaporized=""/>
    <tripinfo id="bike17" depart="129.00" departLane="C0C1_0" departPos="1.70" departSpeed="5.56" departDelay="0.22" arrival="357.00" arrivalLane="C3B3_0" arrivalPos="79.20" arrivalSpeed="4.28" duration="228.00" routeLength="389.41" waitingTime="138.00" waitingCount="3" stopTime="0.00" timeLoss="157.90" rerouteNo="0" devices="tripinfo_bike17" vType="bike_bicycle" speedFactor="0.92" vaporized=""/>