<?xml version="1.0" encoding="UTF-8"?>

<!-- generated on dom 08 dic 2019 22:14:41 -03 by Eclipse SUMO GUI Version 1.3.1
<configuration xmlns:xsi="http://www.w3.org/2001/XMLSchema-instance" xsi:noNamespaceSchemaLocation="http://sumo.dlr.de/xsd/sumoConfiguration.xsd">

    <input>
        <net-file value="source/optimal/optimal3.net.xml"/>
        <route-files value="source/optimal/optimal.passenger.rou.xml,source/optimal/optimal.truck.rou.xml,source/optimal/optimal.bus.rou.xml,source/optimal/optimal.motorcycle.rou.xml,source/optimal/optimal.bicycle.rou.xml"/>
        <additional-files value="source/optimal/e2.add.xml"/>
    </input>

    <output>
        <tripinfo-output value="tripinfo.xml"/>
    </output>

    <processing>
        <step-method.ballistic value="true"/>
        <ignore-route-errors value="true"/>
    </processing>

    <report>
        <verbose value="true"/>
        <log value="source/optimal/result.xml"/>
        <duration-log.statistics value="true"/>
        <no-step-log value="true"/>
    </report>

    <traci_server>
        <remote-port value="56947"/>
    </traci_server>

    <gui_only>
        <gui-settings-file value="source/optimal/optimal.view.xml"/>
    </gui_only>

</configuration>
-->

<tripinfos xmlns:xsi="http://www.w3.org/2001/XMLSchema-instance" xsi:noNamespaceSchemaLocation="http://sumo.dlr.de/xsd/tripinfo_file.xsd">
    <tripinfo id="moto1" depart="16.00" departLane="B3B2_1" departPos="2.30" departSpeed="0.00" departDelay="-0.94" arrival="72.00" arrivalLane="B2C2_1" arrivalPos="79.20" arrivalSpeed="8.83" duration="56.00" routeLength="178.09" waitingTime="21.00" waitingCount="1" stopTime="0.00" timeLoss="38.58" rerouteNo="0" devices="tripinfo_moto1" vType="moto_motorcycle" speedFactor="0.83" vaporized=""/>
    <tripinfo id="bike1" depart="9.00" departLane="B3B2_1" departPos="1.70" departSpeed="0.00" departDelay="-0.58" arrival="72.00" arrivalLane="B2C2_0" arrivalPos="79.20" arrivalSpeed="5.14" duration="63.00" routeLength="178.69" waitingTime="22.00" waitingCount="1" stopTime="0.00" timeLoss="29.78" rerouteNo="0" devices="tripinfo_bike1" vType="bike_bicycle" speedFactor="0.89" vaporized=""/>
    <tripinfo id="veh12" depart="60.00" departLane="B4B3_0" departPos="5.10" departSpeed="13.00" departDelay="-0.99" arrival="94.00" arrivalLane="B2B1_0" arrivalPos="79.20" arrivalSpeed="12.59" duration="34.00" routeLength="284.82" waitingTime="6.00" waitingCount="1" stopTime="0.00" timeLoss="11.55" rerouteNo="0" devices="tripinfo_veh12" vType="veh_passenger" speedFactor="0.94" vaporized=""/>
    <tripinfo id="veh2" depart="10.00" departLane="B0B1_0" departPos="5.10" departSpeed="13.03" departDelay="-0.16" arrival="111.00" arrivalLane="C2C3_0" arrivalPos="79.20" arrivalSpeed="12.19" duration="101.00" routeLength="376.78" waitingTime="59.00" waitingCount="2" stopTime="0.00" timeLoss="70.54" rerouteNo="0" devices="tripinfo_veh2" vType="veh_passenger" speedFactor="0.94" vaporized=""/>
    <tripinfo id="moto0" depart="0.00" departLane="C4C3_0" departPos="2.30" departSpeed="14.31" departDelay="0.00" arrival="134.00" arrivalLane="B1A1_0" arrivalPos="89.60" arrivalSpeed="13.70" duration="134.00" routeLength="486.41" waitingTime="91.00" waitingCount="2" stopTime="0.00" timeLoss="99.15" rerouteNo="0" devices="tripinfo_moto0" vType="moto_motorcycle" speedFactor="1.03" vaporized=""/>
    <tripinfo id="veh5" depart="25.00" departLane="E3D3_0" departPos="5.10" departSpeed="14.26" departDelay="-0.41" arrival="136.00" arrivalLane="B3B4_0" arrivalPos="89.60" arrivalSpeed="13.49" duration="111.00" routeLength="383.45" waitingTime="77.00" waitingCount="1" stopTime="0.00" timeLoss="83.23" rerouteNo="0" devices="tripinfo_veh5" vType="veh_passenger" speedFactor="1.03" vaporized=""/>
    <tripinfo id="veh21" depart="106.00" departLane="E3D3_0" departPos="5.10" departSpeed="13.18" departDelay="-0.73" arrival="144.00" arrivalLane="C3B3_0" arrivalPos="79.20" arrivalSpeed="11.95" duration="38.00" routeLength="284.82" waitingTime="10.00" waitingCount="1" stopTime="0.00" timeLoss="15.65" rerouteNo="0" devices="tripinfo_veh21" vType="veh_passenger" speedFactor="0.95" vaporized=""/>
    <tripinfo id="veh22" depart="111.00" departLane="A1B1_0" departPos="5.10" departSpeed="15.72" departDelay="-0.81" arrival="150.00" arrivalLane="D1E1_0" arrivalPos="89.60" arrivalSpeed="14.92" duration="39.00" routeLength="395.38" waitingTime="5.00" waitingCount="1" stopTime="0.00" timeLoss="13.22" rerouteNo="0" devices="tripinfo_veh22" vType="veh_passenger" speedFactor="1.13" vaporized=""/>
    <tripinfo id="veh7" depart="35.00" departLane="D4D3_0" departPos="5.10" departSpeed="15.60" departDelay="-0.58" arrival="161.00" arrivalLane="D1E1_0" arrivalPos="89.60" arrivalSpeed="14.70" duration="126.00" routeLength="396.41" waitingTime="83.00" waitingCount="2" stopTime="0.00" timeLoss="99.43" rerouteNo="0" devices="tripinfo_veh7" vType="veh_passenger" speedFactor="1.12" vaporized=""/>
    <tripinfo id="veh1" depart="5.00" departLane="E2D2_0" departPos="5.10" departSpeed="13.03" departDelay="-0.08" arrival="187.00" arrivalLane="B1B0_0" arrivalPos="89.60" arrivalSpeed="12.93" duration="182.00" routeLength="496.57" waitingTime="128.00" waitingCount="3" stopTime="0.00" timeLoss="142.69" rerouteNo="0" devices="tripinfo_veh1" vType="veh_passenger" speedFactor="0.94" vaporized=""/>
    <tripinfo id="veh3" depart="15.00" departLane="B0B1_0" departPos="5.10" departSpeed="11.90" departDelay="-0.25" arrival="187.00" arrivalLane="C3C4_0" arrivalPos="89.60" arrivalSpeed="11.42" duration="172.00" routeLength="487.34" waitingTime="113.00" waitingCount="3" stopTime="0.00" timeLoss="129.08" rerouteNo="0" devices="tripinfo_veh3" vType="veh_passenger" speedFactor="0.86" vaporized=""/>
    <tripinfo id="veh15" depart="76.00" departLane="E3D3_1" departPos="5.10" departSpeed="14.03" departDelay="-0.24" arrival="195.00" arrivalLane="D1D0_0" arrivalPos="89.60" arrivalSpeed="13.65" duration="119.00" routeLength="396.41" waitingTime="79.00" waitingCount="2" stopTime="0.00" timeLoss="90.05" rerouteNo="0" devices="tripinfo_veh15" vType="veh_passenger" speedFactor="1.01" vaporized=""/>
    <tripinfo id="bike5" depart="47.00" departLane="B2B1_1" departPos="1.70" departSpeed="0.00" departDelay="-0.88" arrival="196.00" arrivalLane="C2C3_0" arrivalPos="79.20" arrivalSpeed="5.13" duration="149.00" routeLength="377.40" waitingTime="68.00" waitingCount="2" stopTime="0.00" timeLoss="80.66" rerouteNo="0" devices="tripinfo_bike5" vType="bike_bicycle" speedFactor="1.02" vaporized=""/>
    <tripinfo id="veh16" depart="81.00" departLane="C3D3_0" departPos="5.10" departSpeed="0.00" departDelay="-0.32" arrival="197.00" arrivalLane="D1D0_0" arrivalPos="89.60" arrivalSpeed="12.96" duration="116.00" routeLength="373.05" waitingTime="73.00" waitingCount="2" stopTime="0.00" timeLoss="86.98" rerouteNo="0" devices="tripinfo_veh16" vType="veh_passenger" speedFactor="0.98" vaporized=""/>
    <tripinfo id="bike4" depart="38.00" departLane="C1C2_1" departPos="1.70" departSpeed="0.00" departDelay="-0.30" arrival="198.00" arrivalLane="B1A1_0" arrivalPos="89.60" arrivalSpeed="5.17" duration="160.00" routeLength="375.87" waitingTime="79.00" waitingCount="2" stopTime="0.00" timeLoss="91.37" rerouteNo="0" devices="tripinfo_bike4" vType="bike_bicycle" speedFactor="1.04" vaporized=""/>
    <tripinfo id="bike6" depart="57.00" departLane="A1B1_1" departPos="1.70" departSpeed="5.56" departDelay="-0.45" arrival="201.00" arrivalLane="B2B3_0" arrivalPos="79.20" arrivalSpeed="5.35" duration="144.00" routeLength="289.25" waitingTime="81.00" waitingCount="2" stopTime="0.00" timeLoss="91.81" rerouteNo="0" devices="tripinfo_bike6" vType="bike_bicycle" speedFactor="1.02" vaporized=""/>
    <tripinfo id="veh0" depart="0.00" departLane="D0D1_1" departPos="5.10" departSpeed="14.72" departDelay="0.00" arrival="239.00" arrivalLane="B1A1_0" arrivalPos="89.60" arrivalSpeed="14.63" duration="239.00" routeLength="396.41" waitingTime="176.00" waitingCount="3" stopTime="0.00" timeLoss="211.71" rerouteNo="0" devices="tripinfo_veh0" vType="veh_passenger" speedFactor="1.06" vaporized=""/>
    <tripinfo id="moto2" depart="33.00" departLane="D2C2_1" departPos="2.30" departSpeed="0.00" departDelay="-0.88" arrival="242.00" arrivalLane="D1D0_1" arrivalPos="89.60" arrivalSpeed="13.02" duration="209.00" routeLength="375.27" waitingTime="138.00" waitingCount="3" stopTime="0.00" timeLoss="179.40" rerouteNo="0" devices="tripinfo_moto2" vType="moto_motorcycle" speedFactor="1.00" vaporized=""/>
    <tripinfo id="bike2" depart="19.00" departLane="D2C2_1" departPos="1.70" departSpeed="0.00" departDelay="-0.15" arrival="246.00" arrivalLane="D1D0_0" arrivalPos="89.60" arrivalSpeed="5.20" duration="227.00" routeLength="375.87" waitingTime="140.00" waitingCount="3" stopTime="0.00" timeLoss="158.88" rerouteNo="0" devices="tripinfo_bike2" vType="bike_bicycle" speedFactor="0.91" vaporized=""/>
    <tripinfo id="bike3" depart="28.00" departLane="E1D1_0" departPos="1.70" departSpeed="5.56" departDelay="-0.73" arrival="246.00" arrivalLane="B1B2_1" arrivalPos="79.20" arrivalSpeed="5.17" duration="218.00" routeLength="376.45" waitingTime="136.00" waitingCount="2" stopTime="0.00" timeLoss="150.45" rerouteNo="0" devices="tripinfo_bike3" vType="bike_bicycle" speedFactor="0.91" vaporized=""/>
    <tripinfo id="bike14" depart="134.00" departLane="D4D3_0" departPos="1.70" departSpeed="5.56" departDelay="-0.06" arrival="246.00" arrivalLane="C3C4_0" arrivalPos="89.60" arrivalSpeed="5.20" duration="112.00" routeLength="274.76" waitingTime="53.00" waitingCount="2" stopTime="0.00" timeLoss="62.48" rerouteNo="0" devices="tripinfo_bike14" vType="bike_bicycle" speedFactor="1.01" vaporized=""/>
    <tripinfo id="moto3" depart="50.00" departLane="E1D1_0" departPos="2.30" departSpeed="13.83" departDelay="-0.82" arrival="248.00" arrivalLane="B1B2_1" arrivalPos="79.20" arrivalSpeed="11.39" duration="198.00" routeLength="375.85" waitingTime="146.00" waitingCount="2" stopTime="0.00" timeLoss="170.01" rerouteNo="0" devices="tripinfo_moto3" vType="moto_motorcycle" speedFactor="1.00" vaporized=""/>
    <tripinfo id="veh9" depart="45.00" departLane="D2C2_1" departPos="5.10" departSpeed="0.00" departDelay="-0.74" arrival="254.00" arrivalLane="B1A1_0" arrivalPos="89.60" arrivalSpeed="12.59" duration="209.00" routeLength="374.08" waitingTime="148.00" waitingCount="3" stopTime="0.00" timeLoss="177.38" rerouteNo="0" devices="tripinfo_veh9" vType="veh_passenger" speedFactor="0.93" vaporized=""/>
    <tripinfo id="moto6" depart="101.00" departLane="A1B1_1" departPos="2.30" departSpeed="14.22" departDelay="-0.65" arrival="254.00" arrivalLane="B2B3_1" arrivalPos="79.20" arrivalSpeed="13.18" duration="153.00" routeLength="288.65" waitingTime="110.00" waitingCount="2" stopTime="0.00" timeLoss="131.65" rerouteNo="0" devices="tripinfo_moto6" vType="moto_motorcycle" speedFactor="1.02" vaporized=""/>
    <tripinfo id="veh31" depart="157.00" departLane="B0B1_0" departPos="5.10" departSpeed="16.39" departDelay="-0.56" arrival="256.00" arrivalLane="B2B3_1" arrivalPos="79.20" arrivalSpeed="6.31" duration="99.00" routeLength="284.82" waitingTime="60.00" waitingCount="2" stopTime="0.00" timeLoss="81.94" rerouteNo="0" devices="tripinfo_veh31" vType="veh_passenger" speedFactor="1.18" vaporized=""/>
    <tripinfo id="veh10" depart="50.00" departLane="B0B1_0" departPos="5.10" departSpeed="12.20" departDelay="-0.82" arrival="262.00" arrivalLane="B3A3_0" arrivalPos="89.60" arrivalSpeed="11.33" duration="212.00" routeLength="396.41" waitingTime="159.00" waitingCount="3" stopTime="0.00" timeLoss="178.89" rerouteNo="0" devices="tripinfo_veh10" vType="veh_passenger" speedFactor="0.88" vaporized=""/>
    <tripinfo id="bike23" depart="221.00" departLane="A3B3_0" departPos="1.70" departSpeed="5.56" departDelay="0.76" arrival="262.00" arrivalLane="B3B2_1" arrivalPos="79.20" arrivalSpeed="4.19" duration="41.00" routeLength="176.13" waitingTime="3.00" waitingCount="1" stopTime="0.00" timeLoss="9.03" rerouteNo="0" devices="tripinfo_bike23" vType="bike_bicycle" speedFactor="1.14" vaporized=""/>
</tripinfos>
