<?xml version="1.0" encoding="UTF-8"?>

<!-- generated on lun 11 nov 2019 15:23:18 -03 by Eclipse SUMO GUI Version 1.3.1
<configuration xmlns:xsi="http://www.w3.org/2001/XMLSchema-instance" xsi:noNamespaceSchemaLocation="http://sumo.dlr.de/xsd/sumoConfiguration.xsd">

    <input>
        <net-file value="MicroDescongest/osm.net.xml"/>
        <route-files value="MicroDescongest/osm.passenger.trips.xml,MicroDescongest/osm.truck.trips.xml,MicroDescongest/osm.bus.trips.xml,MicroDescongest/osm.motorcycle.trips.xml,MicroDescongest/osm.bicycle.trips.xml"/>
        <additional-files value="MicroDescongest/osm.poly.xml,MicroDescongest/e2corrected.add.xml"/>
    </input>

    <output>
        <tripinfo-output value="tripinfo.xml"/>
    </output>

    <processing>
        <step-method.ballistic value="true"/>
        <ignore-route-errors value="true"/>
    </processing>

    <routing>
        <device.rerouting.adaptation-steps value="180"/>
    </routing>

    <report>
        <verbose value="true"/>
        <duration-log.statistics value="true"/>
        <no-step-log value="true"/>
    </report>

    <traci_server>
        <remote-port value="54405"/>
    </traci_server>

    <gui_only>
        <gui-settings-file value="MicroDescongest/osm.view.xml"/>
    </gui_only>

</configuration>
-->

<tripinfos xmlns:xsi="http://www.w3.org/2001/XMLSchema-instance" xsi:noNamespaceSchemaLocation="http://sumo.dlr.de/xsd/tripinfo_file.xsd">
    <tripinfo id="truck0" depart="0.00" departLane="6024091#0_1" departPos="7.20" departSpeed="11.24" departDelay="0.00" arrival="67.00" arrivalLane="5955850#2_1" arrivalPos="551.96" arrivalSpeed="13.36" duration="67.00" routeLength="806.38" waitingTime="0.00" waitingCount="0" stopTime="0.00" timeLoss="4.21" rerouteNo="1" devices="tripinfo_truck0 routing_truck0" vType="truck_truck" speedFactor="1.01" vaporized=""/>
    <tripinfo id="bus0" depart="2.00" departLane="6024091#0_1" departPos="12.10" departSpeed="10.17" departDelay="2.00" arrival="71.00" arrivalLane="5955850#2_1" arrivalPos="551.96" arrivalSpeed="13.29" duration="69.00" routeLength="801.48" waitingTime="0.00" waitingCount="0" stopTime="0.00" timeLoss="5.85" rerouteNo="1" devices="tripinfo_bus0 routing_bus0" vType="bus_bus" speedFactor="1.00" vaporized=""/>
    <tripinfo id="bike2" depart="19.00" departLane="578942361#2_0" departPos="1.70" departSpeed="0.00" departDelay="-0.15" arrival="72.00" arrivalLane="578942354#0_0" arrivalPos="42.61" arrivalSpeed="4.65" duration="53.00" routeLength="248.16" waitingTime="0.00" waitingCount="0" stopTime="0.00" timeLoss="5.84" rerouteNo="1" devices="tripinfo_bike2 routing_bike2" vType="bike_bicycle" speedFactor="0.90" vaporized=""/>
    <tripinfo id="moto0" depart="0.00" departLane="593766961_1" departPos="2.30" departSpeed="0.00" departDelay="0.00" arrival="80.00" arrivalLane="-419814433#1_1" arrivalPos="20.87" arrivalSpeed="12.66" duration="80.00" routeLength="403.45" waitingTime="38.00" waitingCount="2" stopTime="0.00" timeLoss="49.79" rerouteNo="1" devices="tripinfo_moto0 routing_moto0" vType="moto_motorcycle" speedFactor="1.03" vaporized=""/>
    <tripinfo id="moto2" depart="33.00" departLane="5962129#5_1" departPos="2.30" departSpeed="0.00" departDelay="-0.88" arrival="100.00" arrivalLane="5955850#0_1" arrivalPos="73.56" arrivalSpeed="10.09" duration="67.00" routeLength="677.81" waitingTime="0.00" waitingCount="0" stopTime="0.00" timeLoss="10.69" rerouteNo="1" devices="tripinfo_moto2 routing_moto2" vType="moto_motorcycle" speedFactor="0.90" vaporized=""/>
    <tripinfo id="veh5" depart="25.00" departLane="436291064#0_4" departPos="5.10" departSpeed="0.00" departDelay="-0.41" arrival="103.00" arrivalLane="642751754#1_1" arrivalPos="56.13" arrivalSpeed="15.11" duration="78.00" routeLength="603.88" waitingTime="17.00" waitingCount="1" stopTime="0.00" timeLoss="33.98" rerouteNo="1" devices="tripinfo_veh5 routing_veh5" vType="veh_passenger" speedFactor="1.09" vaporized=""/>
    <tripinfo id="moto4" depart="67.00" departLane="436291016#2_1" departPos="2.30" departSpeed="0.00" departDelay="-0.77" arrival="103.00" arrivalLane="-419814433#2_1" arrivalPos="52.62" arrivalSpeed="9.25" duration="36.00" routeLength="234.47" waitingTime="0.00" waitingCount="0" stopTime="0.00" timeLoss="12.73" rerouteNo="1" devices="tripinfo_moto4 routing_moto4" vType="moto_motorcycle" speedFactor="0.88" vaporized=""/>
    <tripinfo id="bike4" depart="38.00" departLane="436291010_1" departPos="1.70" departSpeed="0.00" departDelay="-0.30" arrival="104.00" arrivalLane="-419814433#0_1" arrivalPos="58.50" arrivalSpeed="5.38" duration="66.00" routeLength="325.95" waitingTime="0.00" waitingCount="0" stopTime="0.00" timeLoss="6.27" rerouteNo="1" devices="tripinfo_bike4 routing_bike4" vType="bike_bicycle" speedFactor="1.02" vaporized=""/>
    <tripinfo id="bike1" depart="9.00" departLane="-593766964_1" departPos="1.70" departSpeed="0.00" departDelay="-0.58" arrival="105.00" arrivalLane="-578942372#1_0" arrivalPos="9.25" arrivalSpeed="5.07" duration="96.00" routeLength="460.08" waitingTime="0.00" waitingCount="0" stopTime="0.00" timeLoss="11.52" rerouteNo="1" devices="tripinfo_bike1 routing_bike1" vType="bike_bicycle" speedFactor="1.05" vaporized=""/>
    <tripinfo id="bus1" depart="25.00" departLane="641705064#0_2" departPos="12.10" departSpeed="0.00" departDelay="-0.41" arrival="112.00" arrivalLane="5955850#2_1" arrivalPos="551.96" arrivalSpeed="13.64" duration="87.00" routeLength="840.84" waitingTime="0.00" waitingCount="0" stopTime="0.00" timeLoss="23.75" rerouteNo="1" devices="tripinfo_bus1 routing_bus1" vType="bus_bus" speedFactor="1.00" vaporized=""/>
    <tripinfo id="veh0" depart="0.00" departLane="642337374#0_2" departPos="5.10" departSpeed="14.72" departDelay="0.00" arrival="125.00" arrivalLane="-5962129#2_1" arrivalPos="29.76" arrivalSpeed="13.94" duration="125.00" routeLength="638.06" waitingTime="61.00" waitingCount="2" stopTime="0.00" timeLoss="79.73" rerouteNo="1" devices="tripinfo_veh0 routing_veh0" vType="veh_passenger" speedFactor="1.06" vaporized=""/>
    <tripinfo id="veh12" depart="60.00" departLane="89927838#0_1" departPos="5.10" departSpeed="13.77" departDelay="-0.99" arrival="139.00" arrivalLane="593766962#0_1" arrivalPos="89.84" arrivalSpeed="13.43" duration="79.00" routeLength="560.71" waitingTime="21.00" waitingCount="2" stopTime="0.00" timeLoss="36.89" rerouteNo="1" devices="tripinfo_veh12 routing_veh12" vType="veh_passenger" speedFactor="0.99" vaporized=""/>
    <tripinfo id="veh2" depart="10.00" departLane="436291016#2_1" departPos="5.10" departSpeed="0.00" departDelay="-0.16" arrival="141.00" arrivalLane="278328405#1_1" arrivalPos="28.73" arrivalSpeed="11.11" duration="131.00" routeLength="551.23" waitingTime="69.00" waitingCount="2" stopTime="0.00" timeLoss="83.17" rerouteNo="1" devices="tripinfo_veh2 routing_veh2" vType="veh_passenger" speedFactor="0.89" vaporized=""/>
    <tripinfo id="veh7" depart="35.00" departLane="6024091#0_2" departPos="5.10" departSpeed="11.47" departDelay="-0.58" arrival="141.00" arrivalLane="-593766960_1" arrivalPos="37.96" arrivalSpeed="13.11" duration="106.00" routeLength="849.56" waitingTime="22.00" waitingCount="1" stopTime="0.00" timeLoss="40.86" rerouteNo="1" devices="tripinfo_veh7 routing_veh7" vType="veh_passenger" speedFactor="1.03" vaporized=""/>
    <tripinfo id="moto1" depart="16.00" departLane="36054466#5_1" departPos="2.30" departSpeed="0.00" departDelay="-0.94" arrival="142.00" arrivalLane="36054466#0_1" arrivalPos="39.67" arrivalSpeed="8.78" duration="126.00" routeLength="546.55" waitingTime="58.00" waitingCount="2" stopTime="0.00" timeLoss="74.19" rerouteNo="1" devices="tripinfo_moto1 routing_moto1" vType="moto_motorcycle" speedFactor="0.83" vaporized=""/>
    <tripinfo id="moto7" depart="120.00" departLane="593766963_1" departPos="2.30" departSpeed="0.00" departDelay="1.41" arrival="144.00" arrivalLane="436291020#2_1" arrivalPos="7.40" arrivalSpeed="11.18" duration="24.00" routeLength="203.12" waitingTime="0.00" waitingCount="0" stopTime="0.00" timeLoss="5.12" rerouteNo="1" devices="tripinfo_moto7 routing_moto7" vType="moto_motorcycle" speedFactor="0.85" vaporized=""/>
    <tripinfo id="bike7" depart="67.00" departLane="578934717#0_0" departPos="1.59" departSpeed="0.00" departDelay="-0.03" arrival="144.00" arrivalLane="578934691#1_0" arrivalPos="33.39" arrivalSpeed="5.30" duration="77.00" routeLength="330.27" waitingTime="3.00" waitingCount="1" stopTime="0.00" timeLoss="16.19" rerouteNo="1" devices="tripinfo_bike7 routing_bike7" vType="bike_bicycle" speedFactor="1.08" vaporized=""/>
    <tripinfo id="veh4" depart="20.00" departLane="-5955850#2_1" departPos="5.10" departSpeed="11.90" departDelay="-0.33" arrival="154.00" arrivalLane="-5962129#4_1" arrivalPos="6.74" arrivalSpeed="11.10" duration="134.00" routeLength="1276.32" waitingTime="9.00" waitingCount="1" stopTime="0.00" timeLoss="26.14" rerouteNo="1" devices="tripinfo_veh4 routing_veh4" vType="veh_passenger" speedFactor="0.86" vaporized=""/>
    <tripinfo id="veh18" depart="91.00" departLane="5962129#2_1" departPos="5.10" departSpeed="0.00" departDelay="-0.48" arrival="154.00" arrivalLane="436291029_1" arrivalPos="42.06" arrivalSpeed="15.06" duration="63.00" routeLength="469.22" waitingTime="16.00" waitingCount="2" stopTime="0.00" timeLoss="32.19" rerouteNo="1" devices="tripinfo_veh18 routing_veh18" vType="veh_passenger" speedFactor="1.16" vaporized=""/>
    <tripinfo id="veh9" depart="45.00" departLane="-5955850#2_1" departPos="5.10" departSpeed="14.54" departDelay="-0.74" arrival="155.00" arrivalLane="36054466#8_1" arrivalPos="8.82" arrivalSpeed="14.22" duration="110.00" routeLength="1188.44" waitingTime="3.00" waitingCount="1" stopTime="0.00" timeLoss="24.80" rerouteNo="1" devices="tripinfo_veh9 routing_veh9" vType="veh_passenger" speedFactor="1.05" vaporized=""/>
    <tripinfo id="bike5" depart="47.00" departLane="-578942367#1_0" departPos="1.70" departSpeed="0.00" departDelay="-0.88" arrival="165.00" arrivalLane="578605861#1_0" arrivalPos="43.40" arrivalSpeed="5.10" duration="118.00" routeLength="539.84" waitingTime="2.00" waitingCount="1" stopTime="0.00" timeLoss="18.42" rerouteNo="1" devices="tripinfo_bike5 routing_bike5" vType="bike_bicycle" speedFactor="0.97" vaporized=""/>
    <tripinfo id="veh10" depart="50.00" departLane="-5955850#2_1" departPos="5.10" departSpeed="15.60" departDelay="-0.82" arrival="166.00" arrivalLane="436291011_3" arrivalPos="66.20" arrivalSpeed="14.93" duration="116.00" routeLength="944.54" waitingTime="32.00" waitingCount="1" stopTime="0.00" timeLoss="49.84" rerouteNo="1" devices="tripinfo_veh10 routing_veh10" vType="veh_passenger" speedFactor="1.12" vaporized=""/>
    <tripinfo id="veh15" depart="76.00" departLane="642337374#0_2" departPos="5.10" departSpeed="12.20" departDelay="-0.24" arrival="171.00" arrivalLane="436291016#10_3" arrivalPos="38.29" arrivalSpeed="11.88" duration="95.00" routeLength="527.21" waitingTime="43.00" waitingCount="1" stopTime="0.00" timeLoss="50.51" rerouteNo="1" devices="tripinfo_veh15 routing_veh15" vType="veh_passenger" speedFactor="0.88" vaporized=""/>
    <tripinfo id="veh19" depart="96.00" departLane="419814433#4_1" departPos="5.10" departSpeed="0.00" departDelay="-0.57" arrival="185.00" arrivalLane="593766962#0_1" arrivalPos="89.84" arrivalSpeed="14.04" duration="89.00" routeLength="608.53" waitingTime="23.00" waitingCount="2" stopTime="0.00" timeLoss="42.89" rerouteNo="1" devices="tripinfo_veh19 routing_veh19" vType="veh_passenger" speedFactor="1.02" vaporized=""/>
    <tripinfo id="veh28" depart="142.00" departLane="436291021#0_2" departPos="5.10" departSpeed="15.72" departDelay="-0.31" arrival="186.00" arrivalLane="436291029_1" arrivalPos="42.06" arrivalSpeed="15.17" duration="44.00" routeLength="473.56" waitingTime="4.00" waitingCount="1" stopTime="0.00" timeLoss="12.85" rerouteNo="1" devices="tripinfo_veh28 routing_veh28" vType="veh_passenger" speedFactor="1.13" vaporized=""/>
    <tripinfo id="veh26" depart="132.00" departLane="642337374#0_1" departPos="5.10" departSpeed="12.74" departDelay="-0.14" arrival="188.00" arrivalLane="642751754#0_1" arrivalPos="41.43" arrivalSpeed="11.61" duration="56.00" routeLength="460.56" waitingTime="6.00" waitingCount="1" stopTime="0.00" timeLoss="19.02" rerouteNo="1" devices="tripinfo_veh26 routing_veh26" vType="veh_passenger" speedFactor="0.92" vaporized=""/>
    <tripinfo id="bike3" depart="28.00" departLane="6024091#2_2" departPos="1.70" departSpeed="0.00" departDelay="-0.73" arrival="188.00" arrivalLane="-578934698_0" arrivalPos="43.74" arrivalSpeed="5.39" duration="160.00" routeLength="668.68" waitingTime="26.00" waitingCount="1" stopTime="0.00" timeLoss="38.56" rerouteNo="1" devices="tripinfo_bike3 routing_bike3" vType="bike_bicycle" speedFactor="1.14" vaporized=""/>
    <tripinfo id="bike12" depart="114.00" departLane="642337374#0_2" departPos="1.70" departSpeed="5.56" departDelay="-0.91" arrival="192.00" arrivalLane="36054466#2_1" arrivalPos="5.99" arrivalSpeed="5.35" duration="78.00" routeLength="407.69" waitingTime="0.00" waitingCount="0" stopTime="0.00" timeLoss="4.31" rerouteNo="1" devices="tripinfo_bike12 routing_bike12" vType="bike_bicycle" speedFactor="0.88" vaporized=""/>
    <tripinfo id="veh23" depart="116.00" departLane="6024091#5_2" departPos="5.10" departSpeed="0.00" departDelay="-0.90" arrival="193.00" arrivalLane="436291029_1" arrivalPos="42.06" arrivalSpeed="11.66" duration="77.00" routeLength="578.18" waitingTime="14.00" waitingCount="1" stopTime="0.00" timeLoss="26.37" rerouteNo="1" devices="tripinfo_veh23 routing_veh23" vType="veh_passenger" speedFactor="0.89" vaporized=""/>
    <tripinfo id="truck1" depart="31.00" departLane="641705064#0_2" departPos="7.20" departSpeed="0.00" departDelay="-0.77" arrival="197.00" arrivalLane="5955850#2_1" arrivalPos="551.96" arrivalSpeed="14.04" duration="166.00" routeLength="845.74" waitingTime="75.00" waitingCount="2" stopTime="0.00" timeLoss="104.97" rerouteNo="1" devices="tripinfo_truck1 routing_truck1" vType="truck_truck" speedFactor="1.04" vaporized=""/>
    <tripinfo id="veh24" depart="121.00" departLane="-593766960_1" departPos="5.10" departSpeed="0.00" departDelay="-0.98" arrival="199.00" arrivalLane="642361032_2" arrivalPos="73.86" arrivalSpeed="11.06" duration="78.00" routeLength="570.38" waitingTime="8.00" waitingCount="1" stopTime="0.00" timeLoss="25.65" rerouteNo="1" devices="tripinfo_veh24 routing_veh24" vType="veh_passenger" speedFactor="0.83" vaporized=""/>
    <tripinfo id="bike10" depart="96.00" departLane="578942372#1_0" departPos="1.70" departSpeed="0.00" departDelay="0.25" arrival="203.00" arrivalLane="578942357_0" arrivalPos="25.21" arrivalSpeed="5.28" duration="107.00" routeLength="343.68" waitingTime="28.00" waitingCount="2" stopTime="0.00" timeLoss="44.02" rerouteNo="1" devices="tripinfo_bike10 routing_bike10" vType="bike_bicycle" speedFactor="0.99" vaporized=""/>
    <tripinfo id="veh1" depart="5.00" departLane="641705063#3_2" departPos="5.10" departSpeed="0.00" departDelay="-0.08" arrival="205.00" arrivalLane="5955850#2_1" arrivalPos="551.96" arrivalSpeed="11.99" duration="200.00" routeLength="886.16" waitingTime="97.00" waitingCount="3" stopTime="0.00" timeLoss="128.93" rerouteNo="1" devices="tripinfo_veh1 routing_veh1" vType="veh_passenger" speedFactor="0.94" vaporized=""/>
    <tripinfo id="veh32" depart="162.00" departLane="419814433#0_1" departPos="5.10" departSpeed="13.96" departDelay="-0.64" arrival="206.00" arrivalLane="642361032_1" arrivalPos="73.86" arrivalSpeed="13.88" duration="44.00" routeLength="452.93" waitingTime="0.00" waitingCount="0" stopTime="0.00" timeLoss="10.44" rerouteNo="1" devices="tripinfo_veh32 routing_veh32" vType="veh_passenger" speedFactor="1.01" vaporized=""/>
    <tripinfo id="bike13" depart="124.00" departLane="-578934709#1_0" departPos="1.70" departSpeed="5.04" departDelay="-0.48" arrival="218.00" arrivalLane="-578934700#1_0" arrivalPos="46.44" arrivalSpeed="4.67" duration="94.00" routeLength="284.67" waitingTime="30.00" waitingCount="1" stopTime="0.00" timeLoss="39.23" rerouteNo="1" devices="tripinfo_bike13 routing_bike13" vType="bike_bicycle" speedFactor="0.91" vaporized=""/>
    <tripinfo id="bus2" depart="50.00" departLane="436291064#1_4" departPos="12.10" departSpeed="0.00" departDelay="-0.82" arrival="221.00" arrivalLane="5955850#2_1" arrivalPos="551.96" arrivalSpeed="13.74" duration="171.00" routeLength="1106.33" waitingTime="50.00" waitingCount="2" stopTime="0.00" timeLoss="86.06" rerouteNo="1" devices="tripinfo_bus2 routing_bus2" vType="bus_bus" speedFactor="1.00" vaporized=""/>
    <tripinfo id="truck2" depart="63.00" departLane="436291064#1_4" departPos="7.20" departSpeed="0.00" departDelay="-0.53" arrival="226.00" arrivalLane="5955850#2_1" arrivalPos="551.96" arrivalSpeed="12.96" duration="163.00" routeLength="1111.23" waitingTime="36.00" waitingCount="2" stopTime="0.00" timeLoss="75.53" rerouteNo="1" devices="tripinfo_truck2 routing_truck2" vType="truck_truck" speedFactor="0.98" vaporized=""/>
    <tripinfo id="veh13" depart="67.00" departLane="436291064#1_4" departPos="5.10" departSpeed="0.00" departDelay="0.93" arrival="233.00" arrivalLane="5955850#2_1" arrivalPos="551.96" arrivalSpeed="12.26" duration="166.00" routeLength="1113.33" waitingTime="34.00" waitingCount="2" stopTime="0.00" timeLoss="74.03" rerouteNo="1" devices="tripinfo_veh13 routing_veh13" vType="veh_passenger" speedFactor="0.93" vaporized=""/>
    <tripinfo id="moto6" depart="101.00" departLane="-419814433#4_1" departPos="2.30" departSpeed="0.00" departDelay="-0.65" arrival="234.00" arrivalLane="234953562_1" arrivalPos="63.91" arrivalSpeed="11.52" duration="133.00" routeLength="511.78" waitingTime="63.00" waitingCount="2" stopTime="0.00" timeLoss="84.25" rerouteNo="1" devices="tripinfo_moto6 routing_moto6" vType="moto_motorcycle" speedFactor="0.85" vaporized=""/>
    <tripinfo id="truck3" depart="95.00" departLane="89922370#0_2" departPos="7.20" departSpeed="14.53" departDelay="-0.30" arrival="236.00" arrivalLane="436291016#7_2" arrivalPos="8.35" arrivalSpeed="12.08" duration="141.00" routeLength="846.94" waitingTime="57.00" waitingCount="2" stopTime="0.00" timeLoss="82.33" rerouteNo="1" devices="tripinfo_truck3 routing_truck3" vType="truck_truck" speedFactor="1.05" vaporized=""/>
    <tripinfo id="veh29" depart="147.00" departLane="419814433#4_1" departPos="5.10" departSpeed="0.00" departDelay="-0.39" arrival="237.00" arrivalLane="641705146#2_1" arrivalPos="169.11" arrivalSpeed="9.27" duration="90.00" routeLength="545.67" waitingTime="26.00" waitingCount="1" stopTime="0.00" timeLoss="38.92" rerouteNo="1" devices="tripinfo_veh29 routing_veh29" vType="veh_passenger" speedFactor="0.93" vaporized=""/>
    <tripinfo id="veh3" depart="15.00" departLane="89922370#0_1" departPos="5.10" departSpeed="13.03" departDelay="-0.25" arrival="239.00" arrivalLane="436291016#10_1" arrivalPos="38.29" arrivalSpeed="12.91" duration="224.00" routeLength="919.65" waitingTime="131.00" waitingCount="4" stopTime="0.00" timeLoss="152.62" rerouteNo="1" devices="tripinfo_veh3 routing_veh3" vType="veh_passenger" speedFactor="0.94" vaporized=""/>
    <tripinfo id="bus3" depart="76.00" departLane="89922370#0_1" departPos="12.10" departSpeed="13.89" departDelay="-0.24" arrival="239.00" arrivalLane="436291016#7_3" arrivalPos="8.35" arrivalSpeed="11.85" duration="163.00" routeLength="847.18" waitingTime="45.00" waitingCount="5" stopTime="0.00" timeLoss="100.97" rerouteNo="1" devices="tripinfo_bus3 routing_bus3" vType="bus_bus" speedFactor="1.00" vaporized=""/>
    <tripinfo id="veh33" depart="167.00" departLane="89922370#0_2" departPos="5.10" departSpeed="16.28" departDelay="-0.72" arrival="240.00" arrivalLane="436291031_2" arrivalPos="27.40" arrivalSpeed="8.02" duration="73.00" routeLength="666.81" waitingTime="21.00" waitingCount="2" stopTime="0.00" timeLoss="32.24" rerouteNo="1" devices="tripinfo_veh33 routing_veh33" vType="veh_passenger" speedFactor="1.17" vaporized=""/>
    <tripinfo id="bike20" depart="191.00" departLane="578942354#1_0" departPos="1.70" departSpeed="0.00" departDelay="-0.51" arrival="240.00" arrivalLane="-419814433#4_1" arrivalPos="35.45" arrivalSpeed="4.99" duration="49.00" routeLength="229.82" waitingTime="0.00" waitingCount="0" stopTime="0.00" timeLoss="6.16" rerouteNo="1" devices="tripinfo_bike20 routing_bike20" vType="bike_bicycle" speedFactor="0.94" vaporized=""/>
    <tripinfo id="bike9" depart="86.00" departLane="578942372#2_0" departPos="1.70" departSpeed="0.00" departDelay="-0.18" arrival="241.00" arrivalLane="-184711452_0" arrivalPos="9.23" arrivalSpeed="5.08" duration="155.00" routeLength="536.37" waitingTime="39.00" waitingCount="2" stopTime="0.00" timeLoss="57.85" rerouteNo="1" devices="tripinfo_bike9 routing_bike9" vType="bike_bicycle" speedFactor="1.02" vaporized=""/>
    <tripinfo id="veh31" depart="157.00" departLane="-5955850#0_1" departPos="5.10" departSpeed="0.00" departDelay="-0.56" arrival="243.00" arrivalLane="593766961_1" arrivalPos="76.48" arrivalSpeed="15.87" duration="86.00" routeLength="409.08" waitingTime="28.00" waitingCount="2" stopTime="0.00" timeLoss="58.65" rerouteNo="1" devices="tripinfo_veh31 routing_veh31" vType="veh_passenger" speedFactor="1.15" vaporized=""/>
    <tripinfo id="moto9" depart="152.00" departLane="641705063#0_1" departPos="2.30" departSpeed="0.00" departDelay="-0.47" arrival="243.00" arrivalLane="-419814433#0_1" arrivalPos="58.50" arrivalSpeed="13.71" duration="91.00" routeLength="362.32" waitingTime="58.00" waitingCount="2" stopTime="0.00" timeLoss="67.03" rerouteNo="1" devices="tripinfo_moto9 routing_moto9" vType="moto_motorcycle" speedFactor="1.17" vaporized=""/>
    <tripinfo id="bus4" depart="101.00" departLane="-5955850#2_1" departPos="12.10" departSpeed="13.89" departDelay="-0.65" arrival="244.00" arrivalLane="593766962#0_1" arrivalPos="89.84" arrivalSpeed="13.76" duration="143.00" routeLength="1047.38" waitingTime="39.00" waitingCount="2" stopTime="0.00" timeLoss="67.42" rerouteNo="1" devices="tripinfo_bus4 routing_bus4" vType="bus_bus" speedFactor="1.00" vaporized=""/>
    <tripinfo id="bike17" depart="162.00" departLane="36054466#5_1" departPos="1.70" departSpeed="0.00" departDelay="-0.78" arrival="244.00" arrivalLane="578934699_0" arrivalPos="20.97" arrivalSpeed="5.14" duration="82.00" routeLength="261.50" waitingTime="25.00" waitingCount="1" stopTime="0.00" timeLoss="34.38" rerouteNo="1" devices="tripinfo_bike17 routing_bike17" vType="bike_bicycle" speedFactor="1.02" vaporized=""/>
    <tripinfo id="veh35" depart="177.00" departLane="6024091#0_2" departPos="5.10" departSpeed="11.40" departDelay="-0.89" arrival="246.00" arrivalLane="593766965_1" arrivalPos="2.11" arrivalSpeed="9.87" duration="69.00" routeLength="531.69" waitingTime="13.00" waitingCount="1" stopTime="0.00" timeLoss="26.25" rerouteNo="1" devices="tripinfo_veh35 routing_veh35" vType="veh_passenger" speedFactor="1.02" vaporized=""/>
    <tripinfo id="veh38" depart="193.00" departLane="419814433#0_1" departPos="5.10" departSpeed="15.31" departDelay="-0.13" arrival="248.00" arrivalLane="642361032_1" arrivalPos="73.86" arrivalSpeed="14.15" duration="55.00" routeLength="441.94" waitingTime="9.00" waitingCount="2" stopTime="0.00" timeLoss="22.24" rerouteNo="1" devices="tripinfo_veh38 routing_veh38" vType="veh_passenger" speedFactor="1.10" vaporized=""/>
    <tripinfo id="bike15" depart="143.00" departLane="578942372#2_0" departPos="1.70" departSpeed="0.00" departDelay="-0.63" arrival="250.00" arrivalLane="578942362_0" arrivalPos="50.37" arrivalSpeed="5.54" duration="107.00" routeLength="313.86" waitingTime="37.00" waitingCount="1" stopTime="0.00" timeLoss="49.90" rerouteNo="1" devices="tripinfo_bike15 routing_bike15" vType="bike_bicycle" speedFactor="1.04" vaporized=""/>
    <tripinfo id="bike8" depart="76.00" departLane="-578942367#2_0" departPos="1.70" departSpeed="0.00" departDelay="-0.60" arrival="253.00" arrivalLane="578934712_0" arrivalPos="3.62" arrivalSpeed="5.26" duration="177.00" routeLength="405.41" waitingTime="81.00" waitingCount="3" stopTime="0.00" timeLoss="102.72" rerouteNo="1" devices="tripinfo_bike8 routing_bike8" vType="bike_bicycle" speedFactor="1.12" vaporized=""/>
    <tripinfo id="truck4" depart="127.00" departLane="-5955850#2_1" departPos="7.20" departSpeed="14.15" departDelay="-0.06" arrival="254.00" arrivalLane="593766962#0_1" arrivalPos="89.84" arrivalSpeed="14.02" duration="127.00" routeLength="1052.28" waitingTime="18.00" waitingCount="3" stopTime="0.00" timeLoss="51.99" rerouteNo="1" devices="tripinfo_truck4 routing_truck4" vType="truck_truck" speedFactor="1.02" vaporized=""/>
    <tripinfo id="moto10" depart="169.00" departLane="641705063#0_1" departPos="2.30" departSpeed="0.00" departDelay="-0.42" arrival="260.00" arrivalLane="5955850#2_1" arrivalPos="551.96" arrivalSpeed="13.73" duration="91.00" routeLength="1018.13" waitingTime="0.00" waitingCount="0" stopTime="0.00" timeLoss="16.68" rerouteNo="1" devices="tripinfo_moto10 routing_moto10" vType="moto_motorcycle" speedFactor="1.02" vaporized=""/>
    <tripinfo id="bike14" depart="134.00" departLane="5955850#0_1" departPos="1.70" departSpeed="0.00" departDelay="-0.06" arrival="261.00" arrivalLane="578934717#0_0" arrivalPos="1.59" arrivalSpeed="4.75" duration="127.00" routeLength="537.72" waitingTime="16.00" waitingCount="1" stopTime="0.00" timeLoss="28.66" rerouteNo="1" devices="tripinfo_bike14 routing_bike14" vType="bike_bicycle" speedFactor="0.91" vaporized=""/>
    <tripinfo id="veh17" depart="86.00" departLane="-5955850#2_1" departPos="5.10" departSpeed="13.00" departDelay="-0.40" arrival="263.00" arrivalLane="-593766963_1" arrivalPos="7.49" arrivalSpeed="8.56" duration="177.00" routeLength="1212.96" waitingTime="43.00" waitingCount="3" stopTime="0.00" timeLoss="82.87" rerouteNo="1" devices="tripinfo_veh17 routing_veh17" vType="veh_passenger" speedFactor="0.94" vaporized=""/>
    <tripinfo id="bike27" depart="261.00" departLane="578934717#0_0" departPos="1.59" departSpeed="0.00" departDelay="2.46" arrival="270.00" arrivalLane="578934717#1_0" arrivalPos="20.89" arrivalSpeed="4.21" duration="9.00" routeLength="25.91" waitingTime="0.00" waitingCount="0" stopTime="0.00" timeLoss="2.45" rerouteNo="0" devices="tripinfo_bike27 routing_bike27" vType="bike_bicycle" speedFactor="0.82" vaporized=""/>
    <tripinfo id="veh37" depart="188.00" departLane="642337374#0_2" departPos="5.10" departSpeed="16.39" departDelay="-0.05" arrival="271.00" arrivalLane="419814433#2_1" arrivalPos="52.62" arrivalSpeed="15.55" duration="83.00" routeLength="521.96" waitingTime="25.00" waitingCount="1" stopTime="0.00" timeLoss="48.78" rerouteNo="1" devices="tripinfo_veh37 routing_veh37" vType="veh_passenger" speedFactor="1.18" vaporized=""/>
    <tripinfo id="veh30" depart="152.00" departLane="89927838#3_1" departPos="5.10" departSpeed="0.00" departDelay="-0.47" arrival="279.00" arrivalLane="593766962#0_1" arrivalPos="89.84" arrivalSpeed="16.26" duration="127.00" routeLength="491.99" waitingTime="50.00" waitingCount="3" stopTime="0.00" timeLoss="95.50" rerouteNo="1" devices="tripinfo_veh30 routing_veh30" vType="veh_passenger" speedFactor="1.18" vaporized=""/>
    <tripinfo id="bus5" depart="129.00" departLane="-5955850#2_1" departPos="12.10" departSpeed="13.58" departDelay="1.94" arrival="284.00" arrivalLane="436291016#3_1" arrivalPos="23.43" arrivalSpeed="13.72" duration="155.00" routeLength="1022.83" waitingTime="41.00" waitingCount="2" stopTime="0.00" timeLoss="79.34" rerouteNo="1" devices="tripinfo_bus5 routing_bus5" vType="bus_bus" speedFactor="1.00" vaporized=""/>
    <tripinfo id="veh34" depart="172.00" departLane="-5955850#2_1" departPos="5.10" departSpeed="13.82" departDelay="-0.80" arrival="290.00" arrivalLane="436291016#8_3" arrivalPos="7.30" arrivalSpeed="13.42" duration="118.00" routeLength="733.09" waitingTime="52.00" waitingCount="2" stopTime="0.00" timeLoss="64.59" rerouteNo="1" devices="tripinfo_veh34 routing_veh34" vType="veh_passenger" speedFactor="0.99" vaporized=""/>
    <tripinfo id="veh40" depart="203.00" departLane="89927838#0_1" departPos="5.10" departSpeed="12.51" departDelay="-0.30" arrival="291.00" arrivalLane="642361032_1" arrivalPos="73.86" arrivalSpeed="12.26" duration="88.00" routeLength="562.64" waitingTime="12.00" waitingCount="2" stopTime="0.00" timeLoss="41.67" rerouteNo="1" devices="tripinfo_veh40 routing_veh40" vType="veh_passenger" speedFactor="0.90" vaporized=""/>
    <tripinfo id="bike11" depart="105.00" departLane="184711452_0" departPos="1.70" departSpeed="5.21" departDelay="-0.33" arrival="292.00" arrivalLane="-578934718#3_0" arrivalPos="48.58" arrivalSpeed="5.13" duration="187.00" routeLength="633.87" waitingTime="48.00" waitingCount="4" stopTime="0.00" timeLoss="71.17" rerouteNo="1" devices="tripinfo_bike11 routing_bike11" vType="bike_bicycle" speedFactor="0.94" vaporized=""/>
    <tripinfo id="bike19" depart="181.00" departLane="5962129#1_1" departPos="1.70" departSpeed="0.00" departDelay="-0.93" arrival="293.00" arrivalLane="578934702_0" arrivalPos="76.94" arrivalSpeed="4.88" duration="112.00" routeLength="279.33" waitingTime="46.00" waitingCount="1" stopTime="0.00" timeLoss="59.94" rerouteNo="1" devices="tripinfo_bike19 routing_bike19" vType="bike_bicycle" speedFactor="0.97" vaporized=""/>
    <tripinfo id="truck5" depart="158.00" departLane="-5955850#2_1" departPos="7.20" departSpeed="14.19" departDelay="-0.83" arrival="294.00" arrivalLane="436291016#3_1" arrivalPos="23.43" arrivalSpeed="13.64" duration="136.00" routeLength="1027.73" waitingTime="35.00" waitingCount="1" stopTime="0.00" timeLoss="61.14" rerouteNo="1" devices="tripinfo_truck5 routing_truck5" vType="truck_truck" speedFactor="1.02" vaporized=""/>