<?xml version="1.0" encoding="UTF-8"?>

<!-- generated on 04/27/20 13:47:33 by Eclipse SUMO GUI Version 1.3.1
<configuration xmlns:xsi="http://www.w3.org/2001/XMLSchema-instance" xsi:noNamespaceSchemaLocation="http://sumo.dlr.de/xsd/sumoConfiguration.xsd">

    <input>
        <net-file value="source/osm/osm.net.xml"/>
        <route-files value="source/osm/osm.passenger.rou.xml,source/osm/osm.truck.rou.xml,source/osm/osm.bus.rou.xml,source/osm/osm.motorcycle.rou.xml,source/osm/osm.bicycle.rou.xml"/>
        <additional-files value="source/osm/osm.poly.xml,source/osm/e2.add.xml"/>
    </input>

    <output>
        <tripinfo-output value="tripinfo.xml"/>
    </output>

    <processing>
        <step-method.ballistic value="true"/>
        <ignore-route-errors value="true"/>
    </processing>

    <report>
        <verbose value="true"/>
        <log value="source/osm/result.xml"/>
        <duration-log.statistics value="true"/>
        <no-step-log value="true"/>
    </report>

    <traci_server>
        <remote-port value="51428"/>
    </traci_server>

    <gui_only>
        <gui-settings-file value="source/osm/osm.view.xml"/>
    </gui_only>

</configuration>
-->

<tripinfos xmlns:xsi="http://www.w3.org/2001/XMLSchema-instance" xsi:noNamespaceSchemaLocation="http://sumo.dlr.de/xsd/tripinfo_file.xsd">
    <tripinfo id="moto0" depart="0.00" departLane="593766965_1" departPos="2.11" departSpeed="0.00" departDelay="0.00" arrival="47.00" arrivalLane="-419814433#1_1" arrivalPos="20.87" arrivalSpeed="12.47" duration="47.00" routeLength="515.30" waitingTime="0.00" waitingCount="0" stopTime="0.00" timeLoss="8.23" rerouteNo="0" devices="tripinfo_moto0" vType="moto_motorcycle" speedFactor="1.03" vaporized=""/>
    <tripinfo id="bike4" depart="30.00" departLane="436291016#1_1" departPos="1.70" departSpeed="0.00" departDelay="-0.30" arrival="77.00" arrivalLane="-419814433#1_1" arrivalPos="20.87" arrivalSpeed="5.20" duration="47.00" routeLength="181.63" waitingTime="3.00" waitingCount="1" stopTime="0.00" timeLoss="13.49" rerouteNo="0" devices="tripinfo_bike4" vType="bike_bicycle" speedFactor="1.06" vaporized=""/>
    <tripinfo id="bike0" depart="0.00" departLane="578934717#0_0" departPos="1.59" departSpeed="0.00" departDelay="0.00" arrival="88.00" arrivalLane="-419814433#0_1" arrivalPos="58.50" arrivalSpeed="5.37" duration="88.00" routeLength="312.85" waitingTime="21.00" waitingCount="1" stopTime="0.00" timeLoss="31.05" rerouteNo="0" devices="tripinfo_bike0" vType="bike_bicycle" speedFactor="1.05" vaporized=""/>
    <tripinfo id="moto4" depart="54.00" departLane="436291016#3_1" departPos="2.30" departSpeed="0.00" departDelay="-0.17" arrival="88.00" arrivalLane="-419814433#2_1" arrivalPos="52.62" arrivalSpeed="12.48" duration="34.00" routeLength="227.35" waitingTime="1.00" waitingCount="1" stopTime="0.00" timeLoss="14.22" rerouteNo="0" devices="tripinfo_moto4" vType="moto_motorcycle" speedFactor="0.97" vaporized=""/>
    <tripinfo id="moto2" depart="27.00" departLane="6024091#0_1" departPos="2.30" departSpeed="12.77" departDelay="-0.08" arrival="91.00" arrivalLane="5955850#2_1" arrivalPos="551.96" arrivalSpeed="13.32" duration="64.00" routeLength="811.28" waitingTime="0.00" waitingCount="0" stopTime="0.00" timeLoss="7.82" rerouteNo="0" devices="tripinfo_moto2" vType="moto_motorcycle" speedFactor="1.14" vaporized=""/>
    <tripinfo id="moto3" depart="40.00" departLane="642337374#0_2" departPos="2.30" departSpeed="14.22" departDelay="-0.62" arrival="95.00" arrivalLane="-5962129#0_1" arrivalPos="30.73" arrivalSpeed="12.90" duration="55.00" routeLength="554.06" waitingTime="0.00" waitingCount="0" stopTime="0.00" timeLoss="13.90" rerouteNo="0" devices="tripinfo_moto3" vType="moto_motorcycle" speedFactor="1.02" vaporized=""/>
    <tripinfo id="veh6" depart="25.00" departLane="436291064#0_4" departPos="5.10" departSpeed="0.00" departDelay="-0.09" arrival="103.00" arrivalLane="642751754#1_1" arrivalPos="56.13" arrivalSpeed="13.71" duration="78.00" routeLength="603.88" waitingTime="13.00" waitingCount="2" stopTime="0.00" timeLoss="32.02" rerouteNo="0" devices="tripinfo_veh6" vType="veh_passenger" speedFactor="1.05" vaporized=""/>
    <tripinfo id="veh16" depart="66.00" departLane="89922370#0_2" departPos="5.10" departSpeed="16.09" departDelay="-0.92" arrival="103.00" arrivalLane="436291019_2" arrivalPos="24.15" arrivalSpeed="15.88" duration="37.00" routeLength="529.94" waitingTime="0.00" waitingCount="0" stopTime="0.00" timeLoss="3.56" rerouteNo="0" devices="tripinfo_veh16" vType="veh_passenger" speedFactor="1.16" vaporized=""/>
    <tripinfo id="bike3" depart="22.00" departLane="623099335_0" departPos="1.70" departSpeed="0.00" departDelay="-0.73" arrival="106.00" arrivalLane="-578934700#0_0" arrivalPos="6.64" arrivalSpeed="4.76" duration="84.00" routeLength="304.19" waitingTime="12.00" waitingCount="1" stopTime="0.00" timeLoss="25.49" rerouteNo="0" devices="tripinfo_bike3" vType="bike_bicycle" speedFactor="0.94" vaporized=""/>
    <tripinfo id="truck0" depart="0.00" departLane="-5955850#2_1" departPos="7.20" departSpeed="13.96" departDelay="0.00" arrival="115.00" arrivalLane="-5962129#1_1" arrivalPos="28.66" arrivalSpeed="10.58" duration="115.00" routeLength="899.59" waitingTime="22.00" waitingCount="1" stopTime="0.00" timeLoss="47.55" rerouteNo="0" devices="tripinfo_truck0" vType="truck_truck" speedFactor="1.01" vaporized=""/>
    <tripinfo id="bus1" depart="20.00" departLane="642337374#0_2" departPos="12.10" departSpeed="13.89" departDelay="-0.41" arrival="115.00" arrivalLane="593766962#0_1" arrivalPos="73.06" arrivalSpeed="5.34" duration="95.00" routeLength="768.71" waitingTime="13.00" waitingCount="1" stopTime="0.00" timeLoss="38.45" rerouteNo="0" devices="tripinfo_bus1" vType="bus_bus" speedFactor="1.00" vaporized=""/>
    <tripinfo id="veh3" depart="13.00" departLane="641705064#1_2" departPos="0.20" departSpeed="0.00" departDelay="0.45" arrival="115.00" arrivalLane="5955850#2_1" arrivalPos="551.96" arrivalSpeed="11.03" duration="102.00" routeLength="822.08" waitingTime="15.00" waitingCount="1" stopTime="0.00" timeLoss="31.01" rerouteNo="0" devices="tripinfo_veh3" vType="veh_passenger" speedFactor="0.86" vaporized=""/>
    <tripinfo id="bus0" depart="2.00" departLane="-5955850#2_1" departPos="12.10" departSpeed="13.67" departDelay="2.00" arrival="121.00" arrivalLane="-5962129#1_1" arrivalPos="28.66" arrivalSpeed="9.67" duration="119.00" routeLength="894.69" waitingTime="21.00" waitingCount="1" stopTime="0.00" timeLoss="51.66" rerouteNo="0" devices="tripinfo_bus0" vType="bus_bus" speedFactor="1.00" vaporized=""/>
    <tripinfo id="moto5" depart="67.00" departLane="36054466#0_1" departPos="2.30" departSpeed="0.00" departDelay="-0.71" arrival="126.00" arrivalLane="436291019_2" arrivalPos="24.15" arrivalSpeed="9.15" duration="59.00" routeLength="528.30" waitingTime="3.00" waitingCount="2" stopTime="0.00" timeLoss="21.89" rerouteNo="0" devices="tripinfo_moto5" vType="moto_motorcycle" speedFactor="1.08" vaporized=""/>
    <tripinfo id="bike2" depart="15.00" departLane="578942363_0" departPos="1.70" departSpeed="0.00" departDelay="-0.15" arrival="131.00" arrivalLane="578942354#0_0" arrivalPos="42.61" arrivalSpeed="4.85" duration="116.00" routeLength="414.39" waitingTime="28.00" waitingCount="1" stopTime="0.00" timeLoss="39.67" rerouteNo="0" devices="tripinfo_bike2" vType="bike_bicycle" speedFactor="0.97" vaporized=""/>
    <tripinfo id="veh9" depart="37.00" departLane="6024091#0_2" departPos="5.10" departSpeed="12.55" departDelay="-0.64" arrival="132.00" arrivalLane="-593766960_1" arrivalPos="54.83" arrivalSpeed="14.99" duration="95.00" routeLength="849.55" waitingTime="12.00" waitingCount="1" stopTime="0.00" timeLoss="35.66" rerouteNo="0" devices="tripinfo_veh9" vType="veh_passenger" speedFactor="1.12" vaporized=""/>
    <tripinfo id="veh1" depart="4.00" departLane="642337374#0_2" departPos="5.10" departSpeed="13.03" departDelay="-0.18" arrival="133.00" arrivalLane="-5962129#4_1" arrivalPos="6.74" arrivalSpeed="12.35" duration="129.00" routeLength="997.64" waitingTime="28.00" waitingCount="2" stopTime="0.00" timeLoss="50.09" rerouteNo="0" devices="tripinfo_veh1" vType="veh_passenger" speedFactor="0.94" vaporized=""/>
    <tripinfo id="veh4" depart="16.00" departLane="89922370#5_1" departPos="5.10" departSpeed="0.00" departDelay="-0.73" arrival="133.00" arrivalLane="436291016#10_2" arrivalPos="38.29" arrivalSpeed="14.76" duration="117.00" routeLength="559.01" waitingTime="61.00" waitingCount="2" stopTime="0.00" timeLoss="78.36" rerouteNo="0" devices="tripinfo_veh4" vType="veh_passenger" speedFactor="1.09" vaporized=""/>
    <tripinfo id="veh17" depart="71.00" departLane="573865733#0_1" departPos="5.10" departSpeed="14.14" departDelay="-0.10" arrival="139.00" arrivalLane="436291010_1" arrivalPos="30.97" arrivalSpeed="5.30" duration="68.00" routeLength="331.69" waitingTime="34.00" waitingCount="2" stopTime="0.00" timeLoss="44.86" rerouteNo="0" devices="tripinfo_veh17" vType="veh_passenger" speedFactor="1.02" vaporized=""/>
    <tripinfo id="moto1" depart="13.00" departLane="36054466#6_1" departPos="2.30" departSpeed="0.00" departDelay="-0.54" arrival="144.00" arrivalLane="36054466#1_1" arrivalPos="8.94" arrivalSpeed="9.17" duration="131.00" routeLength="544.65" waitingTime="61.00" waitingCount="3" stopTime="0.00" timeLoss="79.83" rerouteNo="0" devices="tripinfo_moto1" vType="moto_motorcycle" speedFactor="0.83" vaporized=""/>
    <tripinfo id="veh14" depart="58.00" departLane="36054466#8_1" departPos="5.10" departSpeed="0.00" departDelay="-0.55" arrival="148.00" arrivalLane="642751754#1_1" arrivalPos="56.13" arrivalSpeed="13.03" duration="90.00" routeLength="450.41" waitingTime="31.00" waitingCount="2" stopTime="0.00" timeLoss="53.39" rerouteNo="0" devices="tripinfo_veh14" vType="veh_passenger" speedFactor="0.94" vaporized=""/>
    <tripinfo id="moto9" depart="123.00" departLane="641705063#3_1" departPos="2.30" departSpeed="0.00" departDelay="1.13" arrival="149.00" arrivalLane="-419814433#0_1" arrivalPos="58.50" arrivalSpeed="12.21" duration="26.00" routeLength="245.37" waitingTime="0.00" waitingCount="0" stopTime="0.00" timeLoss="5.97" rerouteNo="0" devices="tripinfo_moto9" vType="moto_motorcycle" speedFactor="0.94" vaporized=""/>
    <tripinfo id="bike7" depart="53.00" departLane="578934718#1_0" departPos="1.70" departSpeed="0.00" departDelay="-0.03" arrival="153.00" arrivalLane="578934698_0" arrivalPos="56.48" arrivalSpeed="4.93" duration="100.00" routeLength="297.59" waitingTime="35.00" waitingCount="1" stopTime="0.00" timeLoss="45.51" rerouteNo="0" devices="tripinfo_bike7" vType="bike_bicycle" speedFactor="0.98" vaporized=""/>
    <tripinfo id="veh5" depart="20.00" departLane="-5955850#2_1" departPos="5.10" departSpeed="14.26" departDelay="-0.91" arrival="157.00" arrivalLane="-641705065_1" arrivalPos="108.20" arrivalSpeed="14.25" duration="137.00" routeLength="1073.49" waitingTime="39.00" waitingCount="1" stopTime="0.00" timeLoss="55.66" rerouteNo="0" devices="tripinfo_veh5" vType="veh_passenger" speedFactor="1.03" vaporized=""/>
    <tripinfo id="veh28" depart="117.00" departLane="436291021#0_2" departPos="5.10" departSpeed="16.04" departDelay="-0.11" arrival="165.00" arrivalLane="436291029_1" arrivalPos="42.06" arrivalSpeed="15.00" duration="48.00" routeLength="473.58" waitingTime="6.00" waitingCount="1" stopTime="0.00" timeLoss="17.66" rerouteNo="0" devices="tripinfo_veh28" vType="veh_passenger" speedFactor="1.15" vaporized=""/>
    <tripinfo id="bike17" depart="129.00" departLane="36054466#9_1" departPos="1.70" departSpeed="0.00" departDelay="0.22" arrival="166.00" arrivalLane="578934699_0" arrivalPos="20.97" arrivalSpeed="5.51" duration="37.00" routeLength="176.62" waitingTime="0.00" waitingCount="0" stopTime="0.00" timeLoss="4.34" rerouteNo="0" devices="tripinfo_bike17" vType="bike_bicycle" speedFactor="1.15" vaporized=""/>
    <tripinfo id="bike8" depart="61.00" departLane="-578942367#2_0" departPos="1.70" departSpeed="0.00" departDelay="0.40" arrival="168.00" arrivalLane="578934713#0_0" arrivalPos="38.83" arrivalSpeed="5.13" duration="107.00" routeLength="462.26" waitingTime="6.00" waitingCount="1" stopTime="0.00" timeLoss="22.70" rerouteNo="0" devices="tripinfo_bike8" vType="bike_bicycle" speedFactor="1.03" vaporized=""/>
    <tripinfo id="veh0" depart="0.00" departLane="6024091#2_2" departPos="5.10" departSpeed="0.00" departDelay="0.00" arrival="174.00" arrivalLane="5955850#2_1" arrivalPos="551.96" arrivalSpeed="13.50" duration="174.00" routeLength="1184.41" waitingTime="63.00" waitingCount="2" stopTime="0.00" timeLoss="87.63" rerouteNo="0" devices="tripinfo_veh0" vType="veh_passenger" speedFactor="1.06" vaporized=""/>
    <tripinfo id="bike10" depart="75.00" departLane="578942374_0" departPos="1.70" departSpeed="0.00" departDelay="-0.75" arrival="174.00" arrivalLane="578942358_0" arrivalPos="4.89" arrivalSpeed="5.12" duration="99.00" routeLength="283.52" waitingTime="36.00" waitingCount="1" stopTime="0.00" timeLoss="47.23" rerouteNo="0" devices="tripinfo_bike10" vType="bike_bicycle" speedFactor="1.01" vaporized=""/>
    <tripinfo id="bike15" depart="113.00" departLane="578942374_0" departPos="1.70" departSpeed="0.00" departDelay="-0.63" arrival="183.00" arrivalLane="578942363_0" arrivalPos="90.71" arrivalSpeed="5.09" duration="70.00" routeLength="283.71" waitingTime="4.00" waitingCount="1" stopTime="0.00" timeLoss="16.51" rerouteNo="0" devices="tripinfo_bike15" vType="bike_bicycle" speedFactor="0.97" vaporized=""/>
    <tripinfo id="veh23" depart="96.00" departLane="573865733#0_1" departPos="5.10" departSpeed="12.74" departDelay="-0.20" arrival="187.00" arrivalLane="278328405#1_2" arrivalPos="28.73" arrivalSpeed="12.14" duration="91.00" routeLength="503.94" waitingTime="31.00" waitingCount="2" stopTime="0.00" timeLoss="49.74" rerouteNo="0" devices="tripinfo_veh23" vType="veh_passenger" speedFactor="0.92" vaporized=""/>
    <tripinfo id="bike5" depart="37.00" departLane="-578942367#2_0" departPos="1.70" departSpeed="0.00" departDelay="-0.88" arrival="189.00" arrivalLane="578605861#2_0" arrivalPos="43.21" arrivalSpeed="4.93" duration="152.00" routeLength="584.00" waitingTime="29.00" waitingCount="1" stopTime="0.00" timeLoss="43.96" rerouteNo="0" devices="tripinfo_bike5" vType="bike_bicycle" speedFactor="0.96" vaporized=""/>
    <tripinfo id="veh18" depart="75.00" departLane="573865733#0_2" departPos="5.10" departSpeed="14.03" departDelay="-0.28" arrival="190.00" arrivalLane="642361032_1" arrivalPos="73.86" arrivalSpeed="13.49" duration="115.00" routeLength="503.83" waitingTime="67.00" waitingCount="2" stopTime="0.00" timeLoss="77.83" rerouteNo="0" devices="tripinfo_veh18" vType="veh_passenger" speedFactor="1.01" vaporized=""/>
    <tripinfo id="veh2" depart="8.00" departLane="5955850#0_1" departPos="5.10" departSpeed="0.00" departDelay="-0.36" arrival="191.00" arrivalLane="436291029_1" arrivalPos="42.06" arrivalSpeed="11.77" duration="183.00" routeLength="723.05" waitingTime="83.00" waitingCount="3" stopTime="0.00" timeLoss="120.88" rerouteNo="0" devices="tripinfo_veh2" vType="veh_passenger" speedFactor="0.94" vaporized=""/>
    <tripinfo id="veh10" depart="41.00" departLane="-5955850#2_1" departPos="5.10" departSpeed="11.73" departDelay="-0.82" arrival="192.00" arrivalLane="36054466#9_1" arrivalPos="9.17" arrivalSpeed="13.13" duration="151.00" routeLength="1203.81" waitingTime="41.00" waitingCount="1" stopTime="0.00" timeLoss="60.09" rerouteNo="0" devices="tripinfo_veh10" vType="veh_passenger" speedFactor="0.99" vaporized=""/>
    <tripinfo id="moto7" depart="94.00" departLane="5955850#0_1" departPos="2.30" departSpeed="0.00" departDelay="-0.79" arrival="193.00" arrivalLane="436291029_3" arrivalPos="42.06" arrivalSpeed="13.38" duration="99.00" routeLength="725.85" waitingTime="21.00" waitingCount="3" stopTime="0.00" timeLoss="41.21" rerouteNo="0" devices="tripinfo_moto7" vType="moto_motorcycle" speedFactor="1.02" vaporized=""/>
    <tripinfo id="bike14" depart="106.00" departLane="5962129#1_1" departPos="1.70" departSpeed="0.00" departDelay="-0.06" arrival="193.00" arrivalLane="578934717#0_0" arrivalPos="1.59" arrivalSpeed="5.55" duration="87.00" routeLength="267.61" waitingTime="23.00" waitingCount="2" stopTime="0.00" timeLoss="38.07" rerouteNo="0" devices="tripinfo_bike14" vType="bike_bicycle" speedFactor="1.02" vaporized=""/>
    <tripinfo id="bike12" depart="90.00" departLane="642337374#1_2" departPos="1.70" departSpeed="0.00" departDelay="-0.91" arrival="194.00" arrivalLane="36054466#4_1" arrivalPos="29.48" arrivalSpeed="5.12" duration="104.00" routeLength="411.20" waitingTime="18.00" waitingCount="1" stopTime="0.00" timeLoss="28.83" rerouteNo="0" devices="tripinfo_bike12" vType="bike_bicycle" speedFactor="1.03" vaporized=""/>
    <tripinfo id="veh25" depart="104.00" departLane="642337374#0_1" departPos="5.10" departSpeed="15.72" departDelay="-0.56" arrival="195.00" arrivalLane="642751754#1_1" arrivalPos="56.13" arrivalSpeed="14.44" duration="91.00" routeLength="526.09" waitingTime="37.00" waitingCount="2" stopTime="0.00" timeLoss="56.86" rerouteNo="0" devices="tripinfo_veh25" vType="veh_passenger" speedFactor="1.13" vaporized=""/>
    <tripinfo id="veh30" depart="125.00" departLane="419814433#0_1" departPos="5.10" departSpeed="16.28" departDelay="-0.47" arrival="195.00" arrivalLane="642361032_2" arrivalPos="73.86" arrivalSpeed="15.50" duration="70.00" routeLength="452.93" waitingTime="16.00" waitingCount="2" stopTime="0.00" timeLoss="41.14" rerouteNo="0" devices="tripinfo_veh30" vType="veh_passenger" speedFactor="1.17" vaporized=""/>
    <tripinfo id="bike13" depart="98.00" departLane="-578934700#1_0" departPos="1.70" departSpeed="0.00" departDelay="-0.48" arrival="195.00" arrivalLane="-578934709#0_0" arrivalPos="8.03" arrivalSpeed="5.54" duration="97.00" routeLength="236.87" waitingTime="43.00" waitingCount="1" stopTime="0.00" timeLoss="53.33" rerouteNo="0" devices="tripinfo_bike13" vType="bike_bicycle" speedFactor="1.00" vaporized=""/>
    <tripinfo id="truck1" depart="26.00" departLane="642337374#0_2" departPos="7.20" departSpeed="14.46" departDelay="-0.77" arrival="199.00" arrivalLane="593766962#0_1" arrivalPos="73.06" arrivalSpeed="13.97" duration="173.00" routeLength="773.61" waitingTime="86.00" waitingCount="3" stopTime="0.00" timeLoss="117.58" rerouteNo="0" devices="tripinfo_truck1" vType="truck_truck" speedFactor="1.04" vaporized=""/>
    <tripinfo id="moto8" depart="108.00" departLane="36054466#0_1" departPos="2.30" departSpeed="0.00" departDelay="-0.33" arrival="200.00" arrivalLane="436291064#1_1" arrivalPos="35.94" arrivalSpeed="10.95" duration="92.00" routeLength="359.08" waitingTime="46.00" waitingCount="2" stopTime="0.00" timeLoss="64.54" rerouteNo="0" devices="tripinfo_moto8" vType="moto_motorcycle" speedFactor="0.99" vaporized=""/>
    <tripinfo id="veh12" depart="50.00" departLane="89927838#3_1" departPos="5.10" departSpeed="0.00" departDelay="-0.19" arrival="201.00" arrivalLane="593766962#0_1" arrivalPos="73.06" arrivalSpeed="12.64" duration="151.00" routeLength="492.00" waitingTime="79.00" waitingCount="3" stopTime="0.00" timeLoss="111.33" rerouteNo="0" devices="tripinfo_veh12" vType="veh_passenger" speedFactor="0.93" vaporized=""/>
    <tripinfo id="veh32" depart="133.00" departLane="89922370#0_1" departPos="5.10" departSpeed="14.16" departDelay="-0.84" arrival="202.00" arrivalLane="436291031_2" arrivalPos="27.40" arrivalSpeed="13.86" duration="69.00" routeLength="666.82" waitingTime="14.00" waitingCount="1" stopTime="0.00" timeLoss="21.89" rerouteNo="0" devices="tripinfo_veh32" vType="veh_passenger" speedFactor="1.02" vaporized=""/>
    <tripinfo id="bus4" depart="81.00" departLane="89922370#0_1" departPos="12.10" departSpeed="13.89" departDelay="-0.65" arrival="202.00" arrivalLane="436291016#8_1" arrivalPos="7.30" arrivalSpeed="13.40" duration="121.00" routeLength="850.41" waitingTime="44.00" waitingCount="1" stopTime="0.00" timeLoss="57.92" rerouteNo="0" devices="tripinfo_bus4" vType="bus_bus" speedFactor="1.00" vaporized=""/>
    <tripinfo id="veh15" depart="62.00" departLane="642337374#0_2" departPos="5.10" departSpeed="13.00" departDelay="-0.74" arrival="203.00" arrivalLane="436291016#10_2" arrivalPos="38.29" arrivalSpeed="12.49" duration="141.00" routeLength="527.21" waitingTime="87.00" waitingCount="2" stopTime="0.00" timeLoss="99.73" rerouteNo="0" devices="tripinfo_veh15" vType="veh_passenger" speedFactor="0.94" vaporized=""/>
    <tripinfo id="veh31" depart="129.00" departLane="642337374#0_2" departPos="5.10" departSpeed="13.82" departDelay="-0.66" arrival="203.00" arrivalLane="-5962129#1_1" arrivalPos="28.66" arrivalSpeed="13.35" duration="74.00" routeLength="511.13" waitingTime="16.00" waitingCount="1" stopTime="0.00" timeLoss="34.83" rerouteNo="0" devices="tripinfo_veh31" vType="veh_passenger" speedFactor="0.99" vaporized=""/>
    <tripinfo id="bus5" depart="102.00" departLane="-5955850#2_1" departPos="12.10" departSpeed="13.89" departDelay="-0.06" arrival="209.00" arrivalLane="593766962#0_1" arrivalPos="73.06" arrivalSpeed="13.61" duration="107.00" routeLength="1047.39" waitingTime="16.00" waitingCount="1" stopTime="0.00" timeLoss="30.73" rerouteNo="0" devices="tripinfo_bus5" vType="bus_bus" speedFactor="1.00" vaporized=""/>
    <tripinfo id="veh29" depart="121.00" departLane="-5955850#2_1" departPos="5.10" departSpeed="13.96" departDelay="-0.29" arrival="213.00" arrivalLane="593766961_1" arrivalPos="76.48" arrivalSpeed="13.89" duration="92.00" routeLength="994.31" waitingTime="1.00" waitingCount="1" stopTime="0.00" timeLoss="19.75" rerouteNo="0" devices="tripinfo_veh29" vType="veh_passenger" speedFactor="1.01" vaporized=""/>
    <tripinfo id="moto10" depart="135.00" departLane="641705063#2_1" departPos="2.30" departSpeed="0.00" departDelay="-0.42" arrival="214.00" arrivalLane="5962129#1_1" arrivalPos="28.66" arrivalSpeed="9.90" duration="79.00" routeLength="339.55" waitingTime="36.00" waitingCount="1" stopTime="0.00" timeLoss="49.31" rerouteNo="0" devices="tripinfo_moto10" vType="moto_motorcycle" speedFactor="0.88" vaporized=""/>
    <tripinfo id="bike11" depart="83.00" departLane="36054466#0_1" departPos="1.70" departSpeed="0.00" departDelay="-0.33" arrival="215.00" arrivalLane="-578934719_0" arrivalPos="7.96" arrivalSpeed="5.37" duration="132.00" routeLength="310.51" waitingTime="54.00" waitingCount="2" stopTime="0.00" timeLoss="75.49" rerouteNo="0" devices="tripinfo_bike11" vType="bike_bicycle" speedFactor="1.09" vaporized=""/>
    <tripinfo id="bike27" depart="204.00" departLane="578934718#1_0" departPos="1.70" departSpeed="0.00" departDelay="-0.54" arrival="217.00" arrivalLane="578934717#1_0" arrivalPos="20.89" arrivalSpeed="5.52" duration="13.00" routeLength="49.15" waitingTime="0.00" waitingCount="0" stopTime="0.00" timeLoss="3.26" rerouteNo="0" devices="tripinfo_bike27" vType="bike_bicycle" speedFactor="1.09" vaporized=""/>
    <tripinfo id="veh19" depart="79.00" departLane="-5955850#2_1" departPos="5.10" departSpeed="13.54" departDelay="-0.47" arrival="218.00" arrivalLane="-593766960_1" arrivalPos="54.83" arrivalSpeed="12.94" duration="139.00" routeLength="1193.04" waitingTime="23.00" waitingCount="2" stopTime="0.00" timeLoss="49.70" rerouteNo="0" devices="tripinfo_veh19" vType="veh_passenger" speedFactor="0.98" vaporized=""/>
    <tripinfo id="veh26" depart="108.00" departLane="-5955850#2_1" departPos="5.10" departSpeed="12.94" departDelay="-0.74" arrival="218.00" arrivalLane="436291020#1_1" arrivalPos="10.35" arrivalSpeed="12.58" duration="110.00" routeLength="1055.21" waitingTime="7.00" waitingCount="1" stopTime="0.00" timeLoss="26.57" rerouteNo="0" devices="tripinfo_veh26" vType="veh_passenger" speedFactor="0.93" vaporized=""/>
    <tripinfo id="bike1" depart="7.00" departLane="-5955850#1_1" departPos="1.70" departSpeed="0.00" departDelay="-0.58" arrival="219.00" arrivalLane="-578942372#2_0" arrivalPos="70.33" arrivalSpeed="4.71" duration="212.00" routeLength="716.41" waitingTime="55.00" waitingCount="2" stopTime="0.00" timeLoss="79.04" rerouteNo="0" devices="tripinfo_bike1" vType="bike_bicycle" speedFactor="0.89" vaporized=""/>
    <tripinfo id="bus6" depart="123.00" departLane="-5955850#2_1" departPos="12.10" departSpeed="12.77" departDelay="0.53" arrival="221.00" arrivalLane="436291016#5_3" arrivalPos="9.64" arrivalSpeed="8.77" duration="98.00" routeLength="681.75" waitingTime="34.00" waitingCount="1" stopTime="0.00" timeLoss="48.27" rerouteNo="0" devices="tripinfo_bus6" vType="bus_bus" speedFactor="1.00" vaporized=""/>
    <tripinfo id="bus7" depart="142.00" departLane="89922370#0_2" departPos="12.10" departSpeed="13.89" departDelay="-0.89" arrival="228.00" arrivalLane="642337372_1" arrivalPos="105.65" arrivalSpeed="10.73" duration="86.00" routeLength="867.18" waitingTime="7.00" waitingCount="1" stopTime="0.00" timeLoss="20.19" rerouteNo="0" devices="tripinfo_bus7" vType="bus_bus" speedFactor="1.00" vaporized=""/>
    <tripinfo id="truck6" depart="160.00" departLane="-5955850#2_1" departPos="7.20" departSpeed="13.91" departDelay="-0.59" arrival="230.00" arrivalLane="436291016#5_3" arrivalPos="9.64" arrivalSpeed="9.86" duration="70.00" routeLength="686.65" waitingTime="5.00" waitingCount="1" stopTime="0.00" timeLoss="19.71" rerouteNo="0" devices="tripinfo_truck6" vType="truck_truck" speedFactor="1.00" vaporized=""/>
    <tripinfo id="moto15" depart="203.00" departLane="641705063#2_1" departPos="2.30" departSpeed="0.00" departDelay="-0.12" arrival="232.00" arrivalLane="5962129#4_1" arrivalPos="6.76" arrivalSpeed="12.53" duration="29.00" routeLength="280.45" waitingTime="0.00" waitingCount="0" stopTime="0.00" timeLoss="6.89" rerouteNo="0" devices="tripinfo_moto15" vType="moto_motorcycle" speedFactor="1.02" vaporized=""/>
    <tripinfo id="veh33" depart="138.00" departLane="641705064#1_1" departPos="0.20" departSpeed="0.00" departDelay="-0.02" arrival="234.00" arrivalLane="36054466#10_1" arrivalPos="164.08" arrivalSpeed="12.45" duration="96.00" routeLength="485.61" waitingTime="35.00" waitingCount="2" stopTime="0.00" timeLoss="57.53" rerouteNo="0" devices="tripinfo_veh33" vType="veh_passenger" speedFactor="0.97" vaporized=""/>
    <tripinfo id="veh24" depart="100.00" departLane="-593766960_1" departPos="5.10" departSpeed="0.00" departDelay="-0.38" arrival="236.00" arrivalLane="642361032_1" arrivalPos="73.86" arrivalSpeed="12.02" duration="136.00" routeLength="580.22" waitingTime="63.00" waitingCount="2" stopTime="0.00" timeLoss="87.83" rerouteNo="0" devices="tripinfo_veh24" vType="veh_passenger" speedFactor="0.95" vaporized=""/>
    <tripinfo id="moto11" depart="148.00" departLane="419814433#2_1" departPos="2.30" departSpeed="0.00" departDelay="-0.96" arrival="241.00" arrivalLane="-89927838#0_1" arrivalPos="51.23" arrivalSpeed="11.32" duration="93.00" routeLength="416.25" waitingTime="31.00" waitingCount="3" stopTime="0.00" timeLoss="57.02" rerouteNo="0" devices="tripinfo_moto11" vType="moto_motorcycle" speedFactor="0.91" vaporized=""/>
    <tripinfo id="bus2" depart="40.00" departLane="-5955850#2_1" departPos="12.10" departSpeed="13.89" departDelay="-0.82" arrival="242.00" arrivalLane="36054466#4_1" arrivalPos="29.48" arrivalSpeed="13.76" duration="202.00" routeLength="1160.02" waitingTime="80.00" waitingCount="3" stopTime="0.00" timeLoss="116.13" rerouteNo="0" devices="tripinfo_bus2" vType="bus_bus" speedFactor="1.00" vaporized=""/>
    <tripinfo id="truck2" depart="54.00" departLane="-5955850#2_1" departPos="7.20" departSpeed="12.88" departDelay="0.47" arrival="246.00" arrivalLane="36054466#4_1" arrivalPos="29.48" arrivalSpeed="12.81" duration="192.00" routeLength="1164.92" waitingTime="53.00" waitingCount="3" stopTime="0.00" timeLoss="98.83" rerouteNo="0" devices="tripinfo_truck2" vType="truck_truck" speedFactor="0.93" vaporized=""/>
    <tripinfo id="veh13" depart="54.00" departLane="436291064#1_4" departPos="5.10" departSpeed="0.00" departDelay="-0.37" arrival="252.00" arrivalLane="5955850#2_1" arrivalPos="551.96" arrivalSpeed="12.18" duration="198.00" routeLength="1113.28" waitingTime="75.00" waitingCount="3" stopTime="0.00" timeLoss="100.38" rerouteNo="0" devices="tripinfo_veh13" vType="veh_passenger" speedFactor="0.88" vaporized=""/>
    <tripinfo id="veh21" depart="87.00" departLane="89922370#0_2" departPos="5.10" departSpeed="11.47" departDelay="-0.83" arrival="252.00" arrivalLane="641705146#2_1" arrivalPos="169.11" arrivalSpeed="8.02" duration="165.00" routeLength="1105.25" waitingTime="44.00" waitingCount="1" stopTime="0.00" timeLoss="60.66" rerouteNo="0" devices="tripinfo_veh21" vType="veh_passenger" speedFactor="0.83" vaporized=""/>
    <tripinfo id="bus3" depart="61.00" departLane="436291064#1_4" departPos="12.10" departSpeed="0.00" departDelay="-0.24" arrival="254.00" arrivalLane="5955850#2_1" arrivalPos="551.96" arrivalSpeed="12.95" duration="193.00" routeLength="1106.28" waitingTime="63.00" waitingCount="3" stopTime="0.00" timeLoss="108.00" rerouteNo="0" devices="tripinfo_bus3" vType="bus_bus" speedFactor="1.00" vaporized=""/>
    <tripinfo id="truck3" depart="80.00" departLane="436291064#1_4" departPos="7.20" departSpeed="0.00" departDelay="-0.30" arrival="256.00" arrivalLane="5955850#2_1" arrivalPos="551.96" arrivalSpeed="13.67" duration="176.00" routeLength="1111.18" waitingTime="46.00" waitingCount="3" stopTime="0.00" timeLoss="97.41" rerouteNo="0" devices="tripinfo_truck3" vType="truck_truck" speedFactor="1.08" vaporized=""/>
    <tripinfo id="bike21" depart="159.00" departLane="-578942371#0_0" departPos="1.70" departSpeed="0.00" departDelay="-0.08" arrival="256.00" arrivalLane="-89927838#0_1" arrivalPos="51.23" arrivalSpeed="5.03" duration="97.00" routeLength="440.82" waitingTime="0.00" waitingCount="0" stopTime="0.00" timeLoss="15.67" rerouteNo="0" devices="tripinfo_bike21" vType="bike_bicycle" speedFactor="1.01" vaporized=""/>