<?xml version="1.0" encoding="UTF-8"?>

<!-- generated on 05/17/20 21:46:00 by Eclipse SUMO GUI Version 1.3.1
<configuration xmlns:xsi="http://www.w3.org/2001/XMLSchema-instance" xsi:noNamespaceSchemaLocation="http://sumo.dlr.de/xsd/sumoConfiguration.xsd">

    <input>
        <net-file value="source/optimal/optimal3.net.xml"/>
        <route-files value="source/optimal/optimal.passenger.rou.xml,source/optimal/optimal.truck.rou.xml,source/optimal/optimal.bus.rou.xml,source/optimal/optimal.motorcycle.rou.xml,source/optimal/optimal.bicycle.rou.xml"/>
        <additional-files value="source/optimal/e2.add.xml"/>
    </input>

    <output>
        <tripinfo-output value="tripinfo.xml"/>
    </output>

    <processing>
        <step-method.ballistic value="true"/>
        <ignore-route-errors value="true"/>
    </processing>

    <report>
        <verbose value="true"/>
        <log value="source/optimal/result.xml"/>
        <duration-log.statistics value="true"/>
        <no-step-log value="true"/>
    </report>

    <traci_server>
        <remote-port value="50387"/>
    </traci_server>

    <gui_only>
        <gui-settings-file value="source/optimal/optimal.view.xml"/>
    </gui_only>

</configuration>
-->

<tripinfos xmlns:xsi="http://www.w3.org/2001/XMLSchema-instance" xsi:noNamespaceSchemaLocation="http://sumo.dlr.de/xsd/tripinfo_file.xsd">
    <tripinfo id="veh5" depart="25.00" departLane="E3D3_0" departPos="5.10" departSpeed="14.26" departDelay="-0.41" arrival="56.00" arrivalLane="B3B4_0" arrivalPos="89.60" arrivalSpeed="13.41" duration="31.00" routeLength="383.45" waitingTime="0.00" waitingCount="0" stopTime="0.00" timeLoss="3.27" rerouteNo="0" devices="tripinfo_veh5" vType="veh_passenger" speedFactor="1.03" vaporized=""/>
    <tripinfo id="moto1" depart="16.00" departLane="B3B2_1" departPos="2.30" departSpeed="0.00" departDelay="-0.94" arrival="68.00" arrivalLane="B2C2_1" arrivalPos="79.20" arrivalSpeed="9.46" duration="52.00" routeLength="178.09" waitingTime="21.00" waitingCount="1" stopTime="0.00" timeLoss="34.91" rerouteNo="0" devices="tripinfo_moto1" vType="moto_motorcycle" speedFactor="0.83" vaporized=""/>
    <tripinfo id="bike1" depart="9.00" departLane="B3B2_1" departPos="1.70" departSpeed="0.00" departDelay="-0.58" arrival="72.00" arrivalLane="B2C2_0" arrivalPos="79.20" arrivalSpeed="5.24" duration="63.00" routeLength="178.69" waitingTime="22.00" waitingCount="1" stopTime="0.00" timeLoss="29.73" rerouteNo="0" devices="tripinfo_bike1" vType="bike_bicycle" speedFactor="0.89" vaporized=""/>
    <tripinfo id="veh12" depart="60.00" departLane="B4B3_0" departPos="5.10" departSpeed="13.00" departDelay="-0.99" arrival="84.00" arrivalLane="B2B1_0" arrivalPos="79.20" arrivalSpeed="12.00" duration="24.00" routeLength="284.82" waitingTime="0.00" waitingCount="0" stopTime="0.00" timeLoss="1.68" rerouteNo="0" devices="tripinfo_veh12" vType="veh_passenger" speedFactor="0.94" vaporized=""/>
    <tripinfo id="veh2" depart="10.00" departLane="B0B1_0" departPos="5.10" departSpeed="13.03" departDelay="-0.16" arrival="111.00" arrivalLane="C2C3_0" arrivalPos="79.20" arrivalSpeed="12.50" duration="101.00" routeLength="376.78" waitingTime="58.00" waitingCount="2" stopTime="0.00" timeLoss="70.01" rerouteNo="0" devices="tripinfo_veh2" vType="veh_passenger" speedFactor="0.94" vaporized=""/>
    <tripinfo id="moto0" depart="0.00" departLane="C4C3_0" departPos="2.30" departSpeed="14.31" departDelay="0.00" arrival="134.00" arrivalLane="B1A1_0" arrivalPos="89.60" arrivalSpeed="13.70" duration="134.00" routeLength="486.41" waitingTime="91.00" waitingCount="2" stopTime="0.00" timeLoss="99.26" rerouteNo="0" devices="tripinfo_moto0" vType="moto_motorcycle" speedFactor="1.03" vaporized=""/>
    <tripinfo id="veh21" depart="106.00" departLane="E3D3_0" departPos="5.10" departSpeed="13.18" departDelay="-0.73" arrival="144.00" arrivalLane="C3B3_0" arrivalPos="79.20" arrivalSpeed="12.32" duration="38.00" routeLength="284.82" waitingTime="10.00" waitingCount="1" stopTime="0.00" timeLoss="15.91" rerouteNo="0" devices="tripinfo_veh21" vType="veh_passenger" speedFactor="0.95" vaporized=""/>
    <tripinfo id="veh22" depart="111.00" departLane="A1B1_0" departPos="5.10" departSpeed="15.72" departDelay="-0.81" arrival="150.00" arrivalLane="D1E1_0" arrivalPos="89.60" arrivalSpeed="14.92" duration="39.00" routeLength="395.38" waitingTime="5.00" waitingCount="1" stopTime="0.00" timeLoss="13.27" rerouteNo="0" devices="tripinfo_veh22" vType="veh_passenger" speedFactor="1.13" vaporized=""/>
    <tripinfo id="veh7" depart="35.00" departLane="D4D3_0" departPos="5.10" departSpeed="15.60" departDelay="-0.58" arrival="161.00" arrivalLane="D1E1_0" arrivalPos="89.60" arrivalSpeed="14.70" duration="126.00" routeLength="396.41" waitingTime="83.00" waitingCount="2" stopTime="0.00" timeLoss="99.54" rerouteNo="0" devices="tripinfo_veh7" vType="veh_passenger" speedFactor="1.12" vaporized=""/>
    <tripinfo id="veh1" depart="5.00" departLane="E2D2_0" departPos="5.10" departSpeed="13.03" departDelay="-0.08" arrival="187.00" arrivalLane="B1B0_0" arrivalPos="89.60" arrivalSpeed="12.56" duration="182.00" routeLength="496.57" waitingTime="128.00" waitingCount="3" stopTime="0.00" timeLoss="142.69" rerouteNo="0" devices="tripinfo_veh1" vType="veh_passenger" speedFactor="0.94" vaporized=""/>
    <tripinfo id="veh3" depart="15.00" departLane="B0B1_0" departPos="5.10" departSpeed="11.90" departDelay="-0.25" arrival="187.00" arrivalLane="C3C4_0" arrivalPos="89.60" arrivalSpeed="11.42" duration="172.00" routeLength="487.34" waitingTime="112.00" waitingCount="2" stopTime="0.00" timeLoss="129.16" rerouteNo="0" devices="tripinfo_veh3" vType="veh_passenger" speedFactor="0.86" vaporized=""/>
    <tripinfo id="veh15" depart="76.00" departLane="E3D3_1" departPos="5.10" departSpeed="14.03" departDelay="-0.24" arrival="195.00" arrivalLane="D1D0_0" arrivalPos="89.60" arrivalSpeed="13.19" duration="119.00" routeLength="396.41" waitingTime="79.00" waitingCount="2" stopTime="0.00" timeLoss="90.22" rerouteNo="0" devices="tripinfo_veh15" vType="veh_passenger" speedFactor="1.01" vaporized=""/>
    <tripinfo id="bike5" depart="47.00" departLane="B2B1_1" departPos="1.70" departSpeed="0.00" departDelay="-0.88" arrival="197.00" arrivalLane="C2C3_0" arrivalPos="79.20" arrivalSpeed="5.01" duration="150.00" routeLength="377.40" waitingTime="68.00" waitingCount="2" stopTime="0.00" timeLoss="81.02" rerouteNo="0" devices="tripinfo_bike5" vType="bike_bicycle" speedFactor="1.02" vaporized=""/>
    <tripinfo id="veh16" depart="81.00" departLane="C3D3_0" departPos="5.10" departSpeed="0.00" departDelay="-0.32" arrival="198.00" arrivalLane="D1D0_0" arrivalPos="89.60" arrivalSpeed="13.29" duration="117.00" routeLength="373.05" waitingTime="73.00" waitingCount="2" stopTime="0.00" timeLoss="87.30" rerouteNo="0" devices="tripinfo_veh16" vType="veh_passenger" speedFactor="0.98" vaporized=""/>
    <tripinfo id="bike4" depart="38.00" departLane="C1C2_1" departPos="1.70" departSpeed="0.00" departDelay="-0.30" arrival="199.00" arrivalLane="B1A1_0" arrivalPos="89.60" arrivalSpeed="5.17" duration="161.00" routeLength="375.87" waitingTime="79.00" waitingCount="2" stopTime="0.00" timeLoss="92.42" rerouteNo="0" devices="tripinfo_bike4" vType="bike_bicycle" speedFactor="1.04" vaporized=""/>
    <tripinfo id="bike11" depart="105.00" departLane="B4B3_0" departPos="1.70" departSpeed="5.56" departDelay="-0.33" arrival="199.00" arrivalLane="B2A2_0" arrivalPos="89.60" arrivalSpeed="5.00" duration="94.00" routeLength="286.69" waitingTime="31.00" waitingCount="2" stopTime="0.00" timeLoss="42.01" rerouteNo="0" devices="tripinfo_bike11" vType="bike_bicycle" speedFactor="0.98" vaporized=""/>
    <tripinfo id="moto6" depart="101.00" departLane="A1B1_1" departPos="2.30" departSpeed="14.22" departDelay="-0.65" arrival="202.00" arrivalLane="B2B3_1" arrivalPos="79.20" arrivalSpeed="7.73" duration="101.00" routeLength="288.65" waitingTime="59.00" waitingCount="2" stopTime="0.00" timeLoss="80.41" rerouteNo="0" devices="tripinfo_moto6" vType="moto_motorcycle" speedFactor="1.02" vaporized=""/>
    <tripinfo id="bike6" depart="57.00" departLane="A1B1_1" departPos="1.70" departSpeed="5.56" departDelay="-0.45" arrival="206.00" arrivalLane="B2B3_1" arrivalPos="79.20" arrivalSpeed="3.47" duration="149.00" routeLength="289.25" waitingTime="83.00" waitingCount="3" stopTime="0.00" timeLoss="97.13" rerouteNo="0" devices="tripinfo_bike6" vType="bike_bicycle" speedFactor="1.02" vaporized=""/>
    <tripinfo id="veh31" depart="157.00" departLane="B0B1_0" departPos="5.10" departSpeed="16.39" departDelay="-0.56" arrival="208.00" arrivalLane="B2B3_1" arrivalPos="79.20" arrivalSpeed="7.29" duration="51.00" routeLength="284.82" waitingTime="13.00" waitingCount="1" stopTime="0.00" timeLoss="33.77" rerouteNo="0" devices="tripinfo_veh31" vType="veh_passenger" speedFactor="1.18" vaporized=""/>
    <tripinfo id="veh10" depart="50.00" departLane="B0B1_0" departPos="5.10" departSpeed="12.20" departDelay="-0.82" arrival="211.00" arrivalLane="B3A3_0" arrivalPos="89.60" arrivalSpeed="11.53" duration="161.00" routeLength="396.41" waitingTime="108.00" waitingCount="3" stopTime="0.00" timeLoss="127.93" rerouteNo="0" devices="tripinfo_veh10" vType="veh_passenger" speedFactor="0.88" vaporized=""/>
    <tripinfo id="veh29" depart="147.00" departLane="B0B1_0" departPos="5.10" departSpeed="14.16" departDelay="-0.39" arrival="222.00" arrivalLane="B3B4_0" arrivalPos="89.60" arrivalSpeed="13.50" duration="75.00" routeLength="395.38" waitingTime="27.00" waitingCount="2" stopTime="0.00" timeLoss="46.36" rerouteNo="0" devices="tripinfo_veh29" vType="veh_passenger" speedFactor="1.02" vaporized=""/>
    <tripinfo id="veh0" depart="0.00" departLane="D0D1_1" departPos="5.10" departSpeed="14.72" departDelay="0.00" arrival="239.00" arrivalLane="B1A1_0" arrivalPos="89.60" arrivalSpeed="14.61" duration="239.00" routeLength="396.41" waitingTime="176.00" waitingCount="3" stopTime="0.00" timeLoss="211.66" rerouteNo="0" devices="tripinfo_veh0" vType="veh_passenger" speedFactor="1.06" vaporized=""/>
    <tripinfo id="moto2" depart="33.00" departLane="D2C2_1" departPos="2.30" departSpeed="0.00" departDelay="-0.88" arrival="240.00" arrivalLane="D1D0_1" arrivalPos="89.60" arrivalSpeed="11.91" duration="207.00" routeLength="375.27" waitingTime="139.00" waitingCount="3" stopTime="0.00" timeLoss="177.51" rerouteNo="0" devices="tripinfo_moto2" vType="moto_motorcycle" speedFactor="1.00" vaporized=""/>
    <tripinfo id="bike3" depart="28.00" departLane="E1D1_0" departPos="1.70" departSpeed="5.56" departDelay="-0.73" arrival="246.00" arrivalLane="B1B2_1" arrivalPos="79.20" arrivalSpeed="4.97" duration="218.00" routeLength="376.45" waitingTime="136.00" waitingCount="2" stopTime="0.00" timeLoss="150.49" rerouteNo="0" devices="tripinfo_bike3" vType="bike_bicycle" speedFactor="0.91" vaporized=""/>
    <tripinfo id="bike14" depart="134.00" departLane="D4D3_0" departPos="1.70" departSpeed="5.56" departDelay="-0.06" arrival="246.00" arrivalLane="C3C4_0" arrivalPos="89.60" arrivalSpeed="5.11" duration="112.00" routeLength="274.76" waitingTime="53.00" waitingCount="2" stopTime="0.00" timeLoss="62.61" rerouteNo="0" devices="tripinfo_bike14" vType="bike_bicycle" speedFactor="1.01" vaporized=""/>
    <tripinfo id="bike2" depart="19.00" departLane="D2C2_1" departPos="1.70" departSpeed="0.00" departDelay="-0.15" arrival="247.00" arrivalLane="D1D0_0" arrivalPos="89.60" arrivalSpeed="5.50" duration="228.00" routeLength="375.87" waitingTime="140.00" waitingCount="3" stopTime="0.00" timeLoss="159.07" rerouteNo="0" devices="tripinfo_bike2" vType="bike_bicycle" speedFactor="0.91" vaporized=""/>
    <tripinfo id="moto3" depart="50.00" departLane="E1D1_0" departPos="2.30" departSpeed="13.83" departDelay="-0.82" arrival="248.00" arrivalLane="B1B2_1" arrivalPos="79.20" arrivalSpeed="13.28" duration="198.00" routeLength="375.85" waitingTime="146.00" waitingCount="2" stopTime="0.00" timeLoss="169.46" rerouteNo="0" devices="tripinfo_moto3" vType="moto_motorcycle" speedFactor="1.00" vaporized=""/>
    <tripinfo id="veh9" depart="45.00" departLane="D2C2_1" departPos="5.10" departSpeed="0.00" departDelay="-0.74" arrival="255.00" arrivalLane="B1A1_0" arrivalPos="89.60" arrivalSpeed="11.83" duration="210.00" routeLength="374.08" waitingTime="146.00" waitingCount="3" stopTime="0.00" timeLoss="178.20" rerouteNo="0" devices="tripinfo_veh9" vType="veh_passenger" speedFactor="0.93" vaporized=""/>
    <tripinfo id="veh17" depart="86.00" departLane="B0B1_0" departPos="5.10" departSpeed="12.36" departDelay="-0.40" arrival="255.00" arrivalLane="D3E3_0" arrivalPos="89.60" arrivalSpeed="11.39" duration="169.00" routeLength="583.77" waitingTime="99.00" waitingCount="3" stopTime="0.00" timeLoss="120.89" rerouteNo="0" devices="tripinfo_veh17" vType="veh_passenger" speedFactor="0.89" vaporized=""/>
    <tripinfo id="bike23" depart="221.00" departLane="A3B3_0" departPos="1.70" departSpeed="5.56" departDelay="0.76" arrival="281.00" arrivalLane="B3B2_0" arrivalPos="79.20" arrivalSpeed="4.98" duration="60.00" routeLength="176.13" waitingTime="23.00" waitingCount="1" stopTime="0.00" timeLoss="28.30" rerouteNo="0" devices="tripinfo_bike23" vType="bike_bicycle" speedFactor="1.14" vaporized=""/>
    <tripinfo id="moto11" depart="186.00" departLane="B4B3_0" departPos="2.30" departSpeed="13.71" departDelay="-0.36" arrival="285.00" arrivalLane="B2A2_0" arrivalPos="89.60" arrivalSpeed="12.93" duration="99.00" routeLength="286.09" waitingTime="70.00" waitingCount="2" stopTime="0.00" timeLoss="77.46" rerouteNo="0" devices="tripinfo_moto11" vType="moto_motorcycle" speedFactor="0.99" vaporized=""/>
    <tripinfo id="veh20" depart="101.00" departLane="D4D3_0" departPos="5.10" departSpeed="12.74" departDelay="-0.65" arrival="286.00" arrivalLane="C1C0_0" arrivalPos="89.60" arrivalSpeed="12.01" duration="185.00" routeLength="487.34" waitingTime="127.00" waitingCount="2" stopTime="0.00" timeLoss="145.32" rerouteNo="0" devices="tripinfo_veh20" vType="veh_passenger" speedFactor="0.92" vaporized=""/>
    <tripinfo id="veh6" depart="30.00" departLane="E1D1_0" departPos="5.10" departSpeed="4.10" departDelay="-0.49" arrival="287.00" arrivalLane="C3C4_0" arrivalPos="89.60" arrivalSpeed="13.27" duration="257.00" routeLength="483.61" waitingTime="182.00" waitingCount="3" stopTime="0.00" timeLoss="222.26" rerouteNo="0" devices="tripinfo_veh6" vType="veh_passenger" speedFactor="1.05" vaporized=""/>
    <tripinfo id="veh8" depart="40.00" departLane="E1D1_0" departPos="5.10" departSpeed="13.77" departDelay="-0.66" arrival="288.00" arrivalLane="C3C4_0" arrivalPos="89.60" arrivalSpeed="13.68" duration="248.00" routeLength="483.61" waitingTime="181.00" waitingCount="3" stopTime="0.00" timeLoss="211.90" rerouteNo="0" devices="tripinfo_veh8" vType="veh_passenger" speedFactor="0.99" vaporized=""/>
    <tripinfo id="moto4" depart="67.00" departLane="C1C2_1" departPos="2.30" departSpeed="0.00" departDelay="-0.77" arrival="291.00" arrivalLane="B1A1_1" arrivalPos="89.60" arrivalSpeed="10.19" duration="224.00" routeLength="375.27" waitingTime="175.00" waitingCount="3" stopTime="0.00" timeLoss="190.89" rerouteNo="0" devices="tripinfo_moto4" vType="moto_motorcycle" speedFactor="0.90" vaporized=""/>
    <tripinfo id="bus1" depart="25.00" departLane="B0B1_0" departPos="12.10" departSpeed="13.89" departDelay="-0.41" arrival="295.00" arrivalLane="B1B0_0" arrivalPos="89.60" arrivalSpeed="13.39" duration="270.00" routeLength="756.96" waitingTime="152.00" waitingCount="5" stopTime="0.00" timeLoss="212.69" rerouteNo="0" devices="tripinfo_bus1" vType="bus_bus" speedFactor="1.00" vaporized=""/>
    <tripinfo id="bike0" depart="1.00" departLane="C4C3_0" departPos="1.70" departSpeed="5.56" departDelay="1.00" arrival="296.00" arrivalLane="B1A1_0" arrivalPos="89.60" arrivalSpeed="5.50" duration="295.00" routeLength="478.81" waitingTime="190.00" waitingCount="4" stopTime="0.00" timeLoss="208.90" rerouteNo="0" devices="tripinfo_bike0" vType="bike_bicycle" speedFactor="1.05" vaporized=""/>
    <tripinfo id="bike16" depart="153.00" departLane="C2D2_1" departPos="1.70" departSpeed="0.00" departDelay="-0.21" arrival="297.00" arrivalLane="D3E3_0" arrivalPos="89.60" arrivalSpeed="5.15" duration="144.00" routeLength="277.32" waitingTime="79.00" waitingCount="2" stopTime="0.00" timeLoss="93.15" rerouteNo="0" devices="tripinfo_bike16" vType="bike_bicycle" speedFactor="1.03" vaporized=""/>
    <tripinfo id="veh36" depart="182.00" departLane="E3D3_0" departPos="5.10" departSpeed="15.17" departDelay="-0.97" arrival="298.00" arrivalLane="B1B0_0" arrivalPos="89.60" arrivalSpeed="14.11" duration="116.00" routeLength="596.73" waitingTime="55.00" waitingCount="3" stopTime="0.00" timeLoss="75.38" rerouteNo="0" devices="tripinfo_veh36" vType="veh_passenger" speedFactor="1.09" vaporized=""/>
    <tripinfo id="bike9" depart="87.00" departLane="D3C3_1" departPos="1.70" departSpeed="0.00" departDelay="0.82" arrival="301.00" arrivalLane="B1A1_0" arrivalPos="89.60" arrivalSpeed="5.07" duration="214.00" routeLength="469.44" waitingTime="108.00" waitingCount="3" stopTime="0.00" timeLoss="128.77" rerouteNo="0" devices="tripinfo_bike9" vType="bike_bicycle" speedFactor="1.06" vaporized=""/>
    <tripinfo id="bike18" depart="172.00" departLane="D3D2_0" departPos="1.70" departSpeed="0.00" departDelay="-0.36" arrival="303.00" arrivalLane="C3C4_0" arrivalPos="89.60" arrivalSpeed="5.14" duration="131.00" routeLength="364.52" waitingTime="51.00" waitingCount="2" stopTime="0.00" timeLoss="64.84" rerouteNo="0" devices="tripinfo_bike18" vType="bike_bicycle" speedFactor="1.02" vaporized=""/>
    <tripinfo id="veh52" depart="264.00" departLane="D0D1_0" departPos="5.10" departSpeed="12.59" departDelay="-0.29" arrival="304.00" arrivalLane="D3D4_0" arrivalPos="89.60" arrivalSpeed="11.29" duration="40.00" routeLength="395.38" waitingTime="1.00" waitingCount="1" stopTime="0.00" timeLoss="7.79" rerouteNo="0" devices="tripinfo_veh52" vType="veh_passenger" speedFactor="0.91" vaporized=""/>
    <tripinfo id="veh32" depart="162.00" departLane="A2B2_0" departPos="5.10" departSpeed="15.31" departDelay="-0.64" arrival="307.00" arrivalLane="D1D0_1" arrivalPos="89.60" arrivalSpeed="14.85" duration="145.00" routeLength="483.61" waitingTime="87.00" waitingCount="2" stopTime="0.00" timeLoss="112.23" rerouteNo="0" devices="tripinfo_veh32" vType="veh_passenger" speedFactor="1.10" vaporized=""/>
    <tripinfo id="bike10" depart="96.00" departLane="D3C3_1" departPos="1.70" departSpeed="0.00" departDelay="0.25" arrival="309.00" arrivalLane="D1D0_0" arrivalPos="89.60" arrivalSpeed="5.00" duration="213.00" routeLength="476.03" waitingTime="109.00" waitingCount="3" stopTime="0.00" timeLoss="127.25" rerouteNo="0" devices="tripinfo_bike10" vType="bike_bicycle" speedFactor="0.96" vaporized=""/>
    <tripinfo id="veh24" depart="121.00" departLane="B3B2_1" departPos="5.10" departSpeed="0.00" departDelay="-0.98" arrival="311.00" arrivalLane="D1D0_0" arrivalPos="89.60" arrivalSpeed="8.13" duration="190.00" routeLength="474.24" waitingTime="118.00" waitingCount="3" stopTime="0.00" timeLoss="159.66" rerouteNo="0" devices="tripinfo_veh24" vType="veh_passenger" speedFactor="1.18" vaporized=""/>
    <tripinfo id="bike19" depart="181.00" departLane="D4D3_0" departPos="1.70" departSpeed="5.56" departDelay="-0.93" arrival="324.00" arrivalLane="C3C2_1" arrivalPos="79.20" arrivalSpeed="5.04" duration="143.00" routeLength="280.02" waitingTime="81.00" waitingCount="2" stopTime="0.00" timeLoss="92.11" rerouteNo="0" devices="tripinfo_bike19" vType="bike_bicycle" speedFactor="0.97" vaporized=""/>
    <tripinfo id="veh25" depart="127.00" departLane="A1B1_1" departPos="5.10" departSpeed="16.04" departDelay="-0.06" arrival="327.00" arrivalLane="B3B4_0" arrivalPos="89.60" arrivalSpeed="15.39" duration="200.00" routeLength="396.41" waitingTime="153.00" waitingCount="3" stopTime="0.00" timeLoss="174.14" rerouteNo="0" devices="tripinfo_veh25" vType="veh_passenger" speedFactor="1.15" vaporized=""/>
    <tripinfo id="moto7" depart="118.00" departLane="D0D1_0" departPos="2.30" departSpeed="13.47" departDelay="-0.59" arrival="334.00" arrivalLane="C3B3_0" arrivalPos="79.20" arrivalSpeed="13.32" duration="216.00" routeLength="488.97" waitingTime="170.00" waitingCount="3" stopTime="0.00" timeLoss="179.32" rerouteNo="0" devices="tripinfo_moto7" vType="moto_motorcycle" speedFactor="0.97" vaporized=""/>
    <tripinfo id="veh14" depart="71.00" departLane="A3B3_0" departPos="5.10" departSpeed="14.14" departDelay="-0.15" arrival="336.00" arrivalLane="D1E1_0" arrivalPos="89.60" arrivalSpeed="13.78" duration="265.00" routeLength="584.80" waitingTime="192.00" waitingCount="5" stopTime="0.00" timeLoss="221.91" rerouteNo="0" devices="tripinfo_veh14" vType="veh_passenger" speedFactor="1.02" vaporized=""/>
    <tripinfo id="veh42" depart="213.00" departLane="B4B3_1" departPos="5.10" departSpeed="14.48" departDelay="-0.46" arrival="336.00" arrivalLane="D3E3_0" arrivalPos="89.60" arrivalSpeed="13.59" duration="123.00" routeLength="396.41" waitingTime="82.00" waitingCount="2" stopTime="0.00" timeLoss="94.48" rerouteNo="0" devices="tripinfo_veh42" vType="veh_passenger" speedFactor="1.04" vaporized=""/>
    <tripinfo id="veh27" depart="137.00" departLane="A2B2_0" departPos="5.10" departSpeed="16.28" departDelay="-0.23" arrival="338.00" arrivalLane="D1E1_0" arrivalPos="89.60" arrivalSpeed="16.02" duration="201.00" routeLength="487.34" waitingTime="150.00" waitingCount="3" stopTime="0.00" timeLoss="168.90" rerouteNo="0" devices="tripinfo_veh27" vType="veh_passenger" speedFactor="1.17" vaporized=""/>
    <tripinfo id="moto14" depart="237.00" departLane="D4D3_0" departPos="2.30" departSpeed="14.41" departDelay="-0.18" arrival="338.00" arrivalLane="C3C4_0" arrivalPos="89.60" arrivalSpeed="12.55" duration="101.00" routeLength="274.16" waitingTime="69.00" waitingCount="2" stopTime="0.00" timeLoss="80.12" rerouteNo="0" devices="tripinfo_moto14" vType="moto_motorcycle" speedFactor="1.04" vaporized=""/>
    <tripinfo id="veh35" depart="177.00" departLane="D4D3_0" departPos="5.10" departSpeed="13.29" departDelay="-0.89" arrival="340.00" arrivalLane="B2A2_0" arrivalPos="89.60" arrivalSpeed="12.35" duration="163.00" routeLength="483.61" waitingTime="94.00" waitingCount="2" stopTime="0.00" timeLoss="125.26" rerouteNo="0" devices="tripinfo_veh35" vType="veh_passenger" speedFactor="0.96" vaporized=""/>
    <tripinfo id="veh49" depart="249.00" departLane="B0B1_0" departPos="5.10" departSpeed="15.15" departDelay="-0.04" arrival="343.00" arrivalLane="D1E1_0" arrivalPos="89.60" arrivalSpeed="14.60" duration="94.00" routeLength="383.45" waitingTime="56.00" waitingCount="2" stopTime="0.00" timeLoss="67.29" rerouteNo="0" devices="tripinfo_veh49" vType="veh_passenger" speedFactor="1.09" vaporized=""/>
    <tripinfo id="bike29" depart="277.00" departLane="B0B1_0" departPos="1.70" departSpeed="5.56" departDelay="-0.69" arrival="348.00" arrivalLane="C1C0_0" arrivalPos="89.60" arrivalSpeed="5.06" duration="71.00" routeLength="274.76" waitingTime="15.00" waitingCount="1" stopTime="0.00" timeLoss="21.60" rerouteNo="0" devices="tripinfo_bike29" vType="bike_bicycle" speedFactor="1.00" vaporized=""/>
    <tripinfo id="veh44" depart="223.00" departLane="A3B3_0" departPos="5.10" departSpeed="4.18" departDelay="-0.63" arrival="350.00" arrivalLane="D3E3_0" arrivalPos="89.60" arrivalSpeed="13.31" duration="127.00" routeLength="395.38" waitingTime="71.00" waitingCount="3" stopTime="0.00" timeLoss="99.17" rerouteNo="0" devices="tripinfo_veh44" vType="veh_passenger" speedFactor="1.02" vaporized=""/>
    <tripinfo id="veh62" depart="315.00" departLane="A1B1_0" departPos="5.10" departSpeed="14.37" departDelay="-0.11" arrival="351.00" arrivalLane="D1E1_0" arrivalPos="89.60" arrivalSpeed="13.51" duration="36.00" routeLength="395.38" waitingTime="1.00" waitingCount="1" stopTime="0.00" timeLoss="8.21" rerouteNo="0" devices="tripinfo_veh62" vType="veh_passenger" speedFactor="1.03" vaporized=""/>
    <tripinfo id="veh11" depart="55.00" departLane="D0D1_1" departPos="5.10" departSpeed="13.08" departDelay="-0.91" arrival="363.00" arrivalLane="B3B4_0" arrivalPos="89.60" arrivalSpeed="11.89" duration="308.00" routeLength="584.80" waitingTime="216.00" waitingCount="5" stopTime="0.00" timeLoss="261.64" rerouteNo="0" devices="tripinfo_veh11" vType="veh_passenger" speedFactor="0.94" vaporized=""/>
    <tripinfo id="bike22" depart="210.00" departLane="A2B2_1" departPos="1.70" departSpeed="5.56" departDelay="-0.66" arrival="367.00" arrivalLane="B3A3_0" arrivalPos="89.60" arrivalSpeed="5.26" duration="157.00" routeLength="298.04" waitingTime="92.00" waitingCount="2" stopTime="0.00" timeLoss="103.05" rerouteNo="0" devices="tripinfo_bike22" vType="bike_bicycle" speedFactor="1.00" vaporized=""/>
    <tripinfo id="moto5" depart="84.00" departLane="B2B1_1" departPos="2.30" departSpeed="0.00" departDelay="-0.71" arrival="368.00" arrivalLane="C2C3_1" arrivalPos="79.20" arrivalSpeed="8.47" duration="284.00" routeLength="376.80" waitingTime="202.00" waitingCount="4" stopTime="0.00" timeLoss="259.12" rerouteNo="0" devices="tripinfo_moto5" vType="moto_motorcycle" speedFactor="1.14" vaporized=""/>
    <tripinfo id="bike17" depart="162.00" departLane="C0C1_0" departPos="1.70" departSpeed="5.56" departDelay="-0.78" arrival="372.00" arrivalLane="C3B3_0" arrivalPos="79.20" arrivalSpeed="5.25" duration="210.00" routeLength="389.41" waitingTime="129.00" waitingCount="2" stopTime="0.00" timeLoss="139.20" rerouteNo="0" devices="tripinfo_bike17" vType="bike_bicycle" speedFactor="1.00" vaporized=""/>
    <tripinfo id="bike34" depart="325.00" departLane="B4B3_0" departPos="1.70" departSpeed="5.56" departDelay="-0.57" arrival="373.00" arrivalLane="B3A3_0" arrivalPos="89.60" arrivalSpeed="5.14" duration="48.00" routeLength="186.53" waitingTime="9.00" waitingCount="1" stopTime="0.00" timeLoss="14.29" rerouteNo="0" devices="tripinfo_bike34" vType="bike_bicycle" speedFactor="1.18" vaporized=""/>
    <tripinfo id="bike15" depart="143.00" departLane="D3C3_1" departPos="1.70" departSpeed="0.00" departDelay="-0.63" arrival="374.00" arrivalLane="D1E1_0" arrivalPos="89.60" arrivalSpeed="5.55" duration="231.00" routeLength="479.76" waitingTime="122.00" waitingCount="4" stopTime="0.00" timeLoss="143.73" rerouteNo="0" devices="tripinfo_bike15" vType="bike_bicycle" speedFactor="1.09" vaporized=""/>
    <tripinfo id="bike7" depart="67.00" departLane="D0D1_1" departPos="1.70" departSpeed="5.56" departDelay="-0.03" arrival="377.00" arrivalLane="C3B3_0" arrivalPos="79.20" arrivalSpeed="4.99" duration="310.00" routeLength="478.67" waitingTime="198.00" waitingCount="4" stopTime="0.00" timeLoss="223.70" rerouteNo="0" devices="tripinfo_bike7" vType="bike_bicycle" speedFactor="0.97" vaporized=""/>
    <tripinfo id="veh23" depart="116.00" departLane="E1D1_0" departPos="5.10" departSpeed="12.94" departDelay="-0.90" arrival="383.00" arrivalLane="B3A3_0" arrivalPos="89.60" arrivalSpeed="12.76" duration="267.00" routeLength="584.80" waitingTime="171.00" waitingCount="4" stopTime="0.00" timeLoss="220.04" rerouteNo="0" devices="tripinfo_veh23" vType="veh_passenger" speedFactor="0.93" vaporized=""/>
    <tripinfo id="moto16" depart="271.00" departLane="C2D2_1" departPos="2.30" departSpeed="0.00" departDelay="-0.07" arrival="385.00" arrivalLane="D3E3_0" arrivalPos="89.60" arrivalSpeed="11.16" duration="114.00" routeLength="276.72" waitingTime="85.00" waitingCount="2" stopTime="0.00" timeLoss="92.33" rerouteNo="0" devices="tripinfo_moto16" vType="moto_motorcycle" speedFactor="1.01" vaporized=""/>
    <tripinfo id="veh30" depart="152.00" departLane="E3D3_1" departPos="5.10" departSpeed="13.52" departDelay="-0.47" arrival="387.00" arrivalLane="D1D0_0" arrivalPos="89.60" arrivalSpeed="12.47" duration="235.00" routeLength="396.41" waitingTime="180.00" waitingCount="3" stopTime="0.00" timeLoss="204.76" rerouteNo="0" devices="tripinfo_veh30" vType="veh_passenger" speedFactor="0.97" vaporized=""/>
    <tripinfo id="truck1" depart="31.00" departLane="B0B1_0" departPos="7.20" departSpeed="14.46" departDelay="-0.77" arrival="389.00" arrivalLane="B1B0_0" arrivalPos="89.60" arrivalSpeed="14.23" duration="358.00" routeLength="761.86" waitingTime="251.00" waitingCount="6" stopTime="0.00" timeLoss="302.07" rerouteNo="0" devices="tripinfo_truck1" vType="truck_truck" speedFactor="1.04" vaporized=""/>
    <tripinfo id="veh19" depart="96.00" departLane="C0C1_1" departPos="5.10" departSpeed="12.12" departDelay="-0.57" arrival="389.00" arrivalLane="B2B3_1" arrivalPos="79.20" arrivalSpeed="6.56" duration="293.00" routeLength="374.08" waitingTime="226.00" waitingCount="4" stopTime="0.00" timeLoss="261.69" rerouteNo="0" devices="tripinfo_veh19" vType="veh_passenger" speedFactor="0.87" vaporized=""/>
    <tripinfo id="veh13" depart="66.00" departLane="D0D1_1" departPos="5.10" departSpeed="16.09" departDelay="-0.07" arrival="391.00" arrivalLane="C3D3_0" arrivalPos="79.20" arrivalSpeed="15.11" duration="325.00" routeLength="462.31" waitingTime="250.00" waitingCount="5" stopTime="0.00" timeLoss="294.17" rerouteNo="0" devices="tripinfo_veh13" vType="veh_passenger" speedFactor="1.16" vaporized=""/>
    <tripinfo id="moto10" depart="169.00" departLane="D3C3_1" departPos="2.30" departSpeed="0.00" departDelay="-0.42" arrival="392.00" arrivalLane="D1D0_0" arrivalPos="89.60" arrivalSpeed="13.94" duration="223.00" routeLength="475.43" waitingTime="143.00" waitingCount="4" stopTime="0.00" timeLoss="186.81" rerouteNo="0" devices="tripinfo_moto10" vType="moto_motorcycle" speedFactor="1.02" vaporized=""/>