<?xml version="1.0" encoding="UTF-8"?>

<!-- generated on 11/10/19 14:11:52 by Eclipse SUMO GUI Version 1.3.1
<configuration xmlns:xsi="http://www.w3.org/2001/XMLSchema-instance" xsi:noNamespaceSchemaLocation="http://sumo.dlr.de/xsd/sumoConfiguration.xsd">

    <input>
        <net-file value="MicroDescongest/osm.net.xml"/>
        <route-files value="MicroDescongest/osm.passenger.trips.xml,MicroDescongest/osm.truck.trips.xml,MicroDescongest/osm.bus.trips.xml,MicroDescongest/osm.motorcycle.trips.xml,MicroDescongest/osm.bicycle.trips.xml"/>
        <additional-files value="MicroDescongest/osm.poly.xml,MicroDescongest/e2corrected.add.xml"/>
    </input>

    <output>
        <tripinfo-output value="tripinfo.xml"/>
    </output>

    <processing>
        <step-method.ballistic value="true"/>
        <ignore-route-errors value="true"/>
    </processing>

    <routing>
        <device.rerouting.adaptation-steps value="180"/>
    </routing>

    <report>
        <verbose value="true"/>
        <duration-log.statistics value="true"/>
        <no-step-log value="true"/>
    </report>

    <traci_server>
        <remote-port value="59624"/>
    </traci_server>

    <gui_only>
        <gui-settings-file value="MicroDescongest/osm.view.xml"/>
    </gui_only>

</configuration>
-->

<tripinfos xmlns:xsi="http://www.w3.org/2001/XMLSchema-instance" xsi:noNamespaceSchemaLocation="http://sumo.dlr.de/xsd/tripinfo_file.xsd">
</tripinfos>
