<?xml version="1.0" encoding="UTF-8"?>

<!-- generated on vie 29 nov 2019 10:36:52 -03 by Eclipse SUMO GUI Version 1.3.1
<configuration xmlns:xsi="http://www.w3.org/2001/XMLSchema-instance" xsi:noNamespaceSchemaLocation="http://sumo.dlr.de/xsd/sumoConfiguration.xsd">

    <input>
        <net-file value="MicroDescongest/osm.net.xml"/>
        <route-files value="MicroDescongest/osm.passenger.trips.xml,MicroDescongest/osm.truck.trips.xml,MicroDescongest/osm.bus.trips.xml,MicroDescongest/osm.motorcycle.trips.xml,MicroDescongest/osm.bicycle.trips.xml"/>
        <additional-files value="MicroDescongest/osm.poly.xml,MicroDescongest/e2.add.xml"/>
    </input>

    <output>
        <tripinfo-output value="tripinfo.xml"/>
    </output>

    <processing>
        <step-method.ballistic value="true"/>
        <ignore-route-errors value="true"/>
    </processing>

    <routing>
        <device.rerouting.adaptation-steps value="180"/>
    </routing>

    <report>
        <verbose value="true"/>
        <duration-log.statistics value="true"/>
        <no-step-log value="true"/>
    </report>

    <traci_server>
        <remote-port value="41439"/>
    </traci_server>

    <gui_only>
        <gui-settings-file value="MicroDescongest/osm.view.xml"/>
    </gui_only>

</configuration>
-->

<tripinfos xmlns:xsi="http://www.w3.org/2001/XMLSchema-instance" xsi:noNamespaceSchemaLocation="http://sumo.dlr.de/xsd/tripinfo_file.xsd">
    <tripinfo id="truck0" depart="0.00" departLane="6024091#0_1" departPos="7.20" departSpeed="11.24" departDelay="0.00" arrival="67.00" arrivalLane="5955850#2_1" arrivalPos="551.96" arrivalSpeed="13.36" duration="67.00" routeLength="806.38" waitingTime="0.00" waitingCount="0" stopTime="0.00" timeLoss="4.21" rerouteNo="1" devices="tripinfo_truck0 routing_truck0" vType="truck_truck" speedFactor="1.01" vaporized=""/>
    <tripinfo id="bus0" depart="2.00" departLane="6024091#0_1" departPos="12.10" departSpeed="10.17" departDelay="2.00" arrival="71.00" arrivalLane="5955850#2_1" arrivalPos="551.96" arrivalSpeed="13.41" duration="69.00" routeLength="801.48" waitingTime="0.00" waitingCount="0" stopTime="0.00" timeLoss="5.84" rerouteNo="1" devices="tripinfo_bus0 routing_bus0" vType="bus_bus" speedFactor="1.00" vaporized=""/>
    <tripinfo id="bike2" depart="19.00" departLane="578942361#2_0" departPos="1.70" departSpeed="0.00" departDelay="-0.15" arrival="72.00" arrivalLane="578942354#0_0" arrivalPos="42.61" arrivalSpeed="4.97" duration="53.00" routeLength="248.16" waitingTime="0.00" waitingCount="0" stopTime="0.00" timeLoss="5.78" rerouteNo="1" devices="tripinfo_bike2 routing_bike2" vType="bike_bicycle" speedFactor="0.90" vaporized=""/>
    <tripinfo id="moto0" depart="0.00" departLane="593766961_1" departPos="2.30" departSpeed="0.00" departDelay="0.00" arrival="80.00" arrivalLane="-419814433#1_1" arrivalPos="20.87" arrivalSpeed="12.66" duration="80.00" routeLength="403.45" waitingTime="38.00" waitingCount="2" stopTime="0.00" timeLoss="49.88" rerouteNo="1" devices="tripinfo_moto0 routing_moto0" vType="moto_motorcycle" speedFactor="1.03" vaporized=""/>
    <tripinfo id="veh2" depart="10.00" departLane="436291016#2_1" departPos="5.10" departSpeed="0.00" departDelay="-0.16" arrival="92.00" arrivalLane="278328405#1_1" arrivalPos="28.73" arrivalSpeed="11.54" duration="82.00" routeLength="551.23" waitingTime="21.00" waitingCount="1" stopTime="0.00" timeLoss="33.08" rerouteNo="1" devices="tripinfo_veh2 routing_veh2" vType="veh_passenger" speedFactor="0.89" vaporized=""/>
    <tripinfo id="moto2" depart="33.00" departLane="5962129#5_1" departPos="2.30" departSpeed="0.00" departDelay="-0.88" arrival="99.00" arrivalLane="5955850#0_1" arrivalPos="73.56" arrivalSpeed="12.43" duration="66.00" routeLength="677.81" waitingTime="0.00" waitingCount="0" stopTime="0.00" timeLoss="10.14" rerouteNo="1" devices="tripinfo_moto2 routing_moto2" vType="moto_motorcycle" speedFactor="0.90" vaporized=""/>
    <tripinfo id="veh5" depart="25.00" departLane="436291064#0_4" departPos="5.10" departSpeed="0.00" departDelay="-0.41" arrival="103.00" arrivalLane="642751754#1_1" arrivalPos="56.13" arrivalSpeed="14.00" duration="78.00" routeLength="603.88" waitingTime="17.00" waitingCount="1" stopTime="0.00" timeLoss="34.04" rerouteNo="1" devices="tripinfo_veh5 routing_veh5" vType="veh_passenger" speedFactor="1.09" vaporized=""/>
    <tripinfo id="bike1" depart="9.00" departLane="-593766964_1" departPos="1.70" departSpeed="0.00" departDelay="-0.58" arrival="104.00" arrivalLane="-578942372#1_0" arrivalPos="9.25" arrivalSpeed="5.34" duration="95.00" routeLength="460.08" waitingTime="0.00" waitingCount="0" stopTime="0.00" timeLoss="11.37" rerouteNo="1" devices="tripinfo_bike1 routing_bike1" vType="bike_bicycle" speedFactor="1.05" vaporized=""/>
    <tripinfo id="bus1" depart="25.00" departLane="641705064#0_2" departPos="12.10" departSpeed="0.00" departDelay="-0.41" arrival="111.00" arrivalLane="5955850#2_1" arrivalPos="551.96" arrivalSpeed="13.64" duration="86.00" routeLength="840.84" waitingTime="0.00" waitingCount="0" stopTime="0.00" timeLoss="22.51" rerouteNo="1" devices="tripinfo_bus1 routing_bus1" vType="bus_bus" speedFactor="1.00" vaporized=""/>
    <tripinfo id="veh7" depart="35.00" departLane="6024091#0_2" departPos="5.10" departSpeed="11.47" departDelay="-0.58" arrival="119.00" arrivalLane="-593766960_1" arrivalPos="37.96" arrivalSpeed="13.21" duration="84.00" routeLength="849.56" waitingTime="3.00" waitingCount="1" stopTime="0.00" timeLoss="18.47" rerouteNo="1" devices="tripinfo_veh7 routing_veh7" vType="veh_passenger" speedFactor="1.03" vaporized=""/>
    <tripinfo id="veh0" depart="0.00" departLane="642337374#0_2" departPos="5.10" departSpeed="14.72" departDelay="0.00" arrival="125.00" arrivalLane="-5962129#2_1" arrivalPos="29.76" arrivalSpeed="14.17" duration="125.00" routeLength="638.06" waitingTime="61.00" waitingCount="2" stopTime="0.00" timeLoss="79.35" rerouteNo="1" devices="tripinfo_veh0 routing_veh0" vType="veh_passenger" speedFactor="1.06" vaporized=""/>
    <tripinfo id="moto1" depart="16.00" departLane="36054466#5_1" departPos="2.30" departSpeed="0.00" departDelay="-0.94" arrival="142.00" arrivalLane="36054466#0_1" arrivalPos="39.67" arrivalSpeed="9.89" duration="126.00" routeLength="546.55" waitingTime="58.00" waitingCount="2" stopTime="0.00" timeLoss="74.61" rerouteNo="1" devices="tripinfo_moto1 routing_moto1" vType="moto_motorcycle" speedFactor="0.83" vaporized=""/>
    <tripinfo id="veh12" depart="60.00" departLane="89927838#0_1" departPos="5.10" departSpeed="13.77" departDelay="-0.99" arrival="143.00" arrivalLane="593766962#0_1" arrivalPos="89.84" arrivalSpeed="13.04" duration="83.00" routeLength="560.71" waitingTime="20.00" waitingCount="1" stopTime="0.00" timeLoss="41.40" rerouteNo="1" devices="tripinfo_veh12 routing_veh12" vType="veh_passenger" speedFactor="0.99" vaporized=""/>
    <tripinfo id="moto4" depart="67.00" departLane="436291016#2_1" departPos="2.30" departSpeed="0.00" departDelay="-0.77" arrival="143.00" arrivalLane="-419814433#2_1" arrivalPos="52.62" arrivalSpeed="10.01" duration="76.00" routeLength="234.47" waitingTime="35.00" waitingCount="1" stopTime="0.00" timeLoss="53.46" rerouteNo="1" devices="tripinfo_moto4 routing_moto4" vType="moto_motorcycle" speedFactor="0.88" vaporized=""/>
    <tripinfo id="bike4" depart="38.00" departLane="436291010_1" departPos="1.70" departSpeed="0.00" departDelay="-0.30" arrival="144.00" arrivalLane="-419814433#0_1" arrivalPos="58.50" arrivalSpeed="5.33" duration="106.00" routeLength="325.95" waitingTime="36.00" waitingCount="1" stopTime="0.00" timeLoss="46.52" rerouteNo="1" devices="tripinfo_bike4 routing_bike4" vType="bike_bicycle" speedFactor="1.02" vaporized=""/>
    <tripinfo id="bike7" depart="67.00" departLane="578934717#0_0" departPos="1.59" departSpeed="0.00" departDelay="-0.03" arrival="144.00" arrivalLane="578934691#1_0" arrivalPos="33.39" arrivalSpeed="4.98" duration="77.00" routeLength="330.27" waitingTime="3.00" waitingCount="1" stopTime="0.00" timeLoss="16.28" rerouteNo="1" devices="tripinfo_bike7 routing_bike7" vType="bike_bicycle" speedFactor="1.08" vaporized=""/>
    <tripinfo id="moto7" depart="124.00" departLane="593766963_1" departPos="2.30" departSpeed="0.00" departDelay="5.41" arrival="148.00" arrivalLane="436291020#2_1" arrivalPos="7.40" arrivalSpeed="10.56" duration="24.00" routeLength="203.12" waitingTime="0.00" waitingCount="0" stopTime="0.00" timeLoss="5.20" rerouteNo="1" devices="tripinfo_moto7 routing_moto7" vType="moto_motorcycle" speedFactor="0.85" vaporized=""/>
    <tripinfo id="veh9" depart="45.00" departLane="-5955850#2_1" departPos="5.10" departSpeed="14.54" departDelay="-0.74" arrival="154.00" arrivalLane="36054466#8_1" arrivalPos="8.82" arrivalSpeed="14.22" duration="109.00" routeLength="1188.44" waitingTime="2.00" waitingCount="1" stopTime="0.00" timeLoss="25.04" rerouteNo="1" devices="tripinfo_veh9 routing_veh9" vType="veh_passenger" speedFactor="1.05" vaporized=""/>
    <tripinfo id="veh18" depart="91.00" departLane="5962129#2_1" departPos="5.10" departSpeed="0.00" departDelay="-0.48" arrival="154.00" arrivalLane="436291029_1" arrivalPos="42.06" arrivalSpeed="15.94" duration="63.00" routeLength="469.22" waitingTime="13.00" waitingCount="2" stopTime="0.00" timeLoss="32.51" rerouteNo="1" devices="tripinfo_veh18 routing_veh18" vType="veh_passenger" speedFactor="1.16" vaporized=""/>
    <tripinfo id="veh4" depart="20.00" departLane="-5955850#2_1" departPos="5.10" departSpeed="11.90" departDelay="-0.33" arrival="159.00" arrivalLane="-5962129#4_1" arrivalPos="6.74" arrivalSpeed="11.47" duration="139.00" routeLength="1276.32" waitingTime="12.00" waitingCount="1" stopTime="0.00" timeLoss="29.65" rerouteNo="1" devices="tripinfo_veh4 routing_veh4" vType="veh_passenger" speedFactor="0.86" vaporized=""/>
    <tripinfo id="truck1" depart="31.00" departLane="641705064#0_2" departPos="7.20" departSpeed="0.00" departDelay="-0.77" arrival="163.00" arrivalLane="5955850#2_1" arrivalPos="551.96" arrivalSpeed="13.89" duration="132.00" routeLength="845.74" waitingTime="46.00" waitingCount="1" stopTime="0.00" timeLoss="71.90" rerouteNo="1" devices="tripinfo_truck1 routing_truck1" vType="truck_truck" speedFactor="1.04" vaporized=""/>
    <tripinfo id="bike5" depart="47.00" departLane="-578942367#1_0" departPos="1.70" departSpeed="0.00" departDelay="-0.88" arrival="163.00" arrivalLane="578605861#1_0" arrivalPos="43.40" arrivalSpeed="5.35" duration="116.00" routeLength="539.84" waitingTime="0.00" waitingCount="0" stopTime="0.00" timeLoss="16.77" rerouteNo="1" devices="tripinfo_bike5 routing_bike5" vType="bike_bicycle" speedFactor="0.97" vaporized=""/>
    <tripinfo id="veh19" depart="96.00" departLane="419814433#4_1" departPos="5.10" departSpeed="0.00" departDelay="-0.57" arrival="164.00" arrivalLane="593766962#0_1" arrivalPos="89.84" arrivalSpeed="12.94" duration="68.00" routeLength="608.53" waitingTime="5.00" waitingCount="1" stopTime="0.00" timeLoss="21.70" rerouteNo="1" devices="tripinfo_veh19 routing_veh19" vType="veh_passenger" speedFactor="1.02" vaporized=""/>
    <tripinfo id="moto6" depart="101.00" departLane="-419814433#4_1" departPos="2.30" departSpeed="0.00" departDelay="-0.65" arrival="165.00" arrivalLane="234953562_2" arrivalPos="63.91" arrivalSpeed="10.52" duration="64.00" routeLength="511.78" waitingTime="0.00" waitingCount="0" stopTime="0.00" timeLoss="13.44" rerouteNo="1" devices="tripinfo_moto6 routing_moto6" vType="moto_motorcycle" speedFactor="0.85" vaporized=""/>
    <tripinfo id="veh10" depart="50.00" departLane="-5955850#2_1" departPos="5.10" departSpeed="15.60" departDelay="-0.82" arrival="166.00" arrivalLane="436291011_3" arrivalPos="66.20" arrivalSpeed="14.31" duration="116.00" routeLength="944.54" waitingTime="31.00" waitingCount="1" stopTime="0.00" timeLoss="50.16" rerouteNo="1" devices="tripinfo_veh10 routing_veh10" vType="veh_passenger" speedFactor="1.12" vaporized=""/>
    <tripinfo id="veh1" depart="5.00" departLane="641705063#3_2" departPos="5.10" departSpeed="0.00" departDelay="-0.08" arrival="171.00" arrivalLane="5955850#2_1" arrivalPos="551.96" arrivalSpeed="12.47" duration="166.00" routeLength="886.16" waitingTime="69.00" waitingCount="2" stopTime="0.00" timeLoss="95.41" rerouteNo="1" devices="tripinfo_veh1 routing_veh1" vType="veh_passenger" speedFactor="0.94" vaporized=""/>
    <tripinfo id="bike13" depart="124.00" departLane="-578934709#1_0" departPos="1.70" departSpeed="5.04" departDelay="-0.48" arrival="186.00" arrivalLane="-578934700#1_0" arrivalPos="46.44" arrivalSpeed="4.85" duration="62.00" routeLength="284.67" waitingTime="0.00" waitingCount="0" stopTime="0.00" timeLoss="7.02" rerouteNo="1" devices="tripinfo_bike13 routing_bike13" vType="bike_bicycle" speedFactor="0.91" vaporized=""/>
    <tripinfo id="veh15" depart="76.00" departLane="642337374#0_2" departPos="5.10" departSpeed="12.20" departDelay="-0.24" arrival="188.00" arrivalLane="436291016#10_2" arrivalPos="38.29" arrivalSpeed="11.14" duration="112.00" routeLength="527.21" waitingTime="56.00" waitingCount="2" stopTime="0.00" timeLoss="68.01" rerouteNo="1" devices="tripinfo_veh15 routing_veh15" vType="veh_passenger" speedFactor="0.88" vaporized=""/>
    <tripinfo id="veh26" depart="132.00" departLane="642337374#0_1" departPos="5.10" departSpeed="12.74" departDelay="-0.14" arrival="188.00" arrivalLane="642751754#0_1" arrivalPos="41.43" arrivalSpeed="12.00" duration="56.00" routeLength="460.56" waitingTime="5.00" waitingCount="1" stopTime="0.00" timeLoss="19.12" rerouteNo="1" devices="tripinfo_veh26 routing_veh26" vType="veh_passenger" speedFactor="0.92" vaporized=""/>
    <tripinfo id="bike12" depart="114.00" departLane="642337374#0_2" departPos="1.70" departSpeed="5.56" departDelay="-0.91" arrival="192.00" arrivalLane="36054466#2_1" arrivalPos="5.99" arrivalSpeed="5.33" duration="78.00" routeLength="407.69" waitingTime="0.00" waitingCount="0" stopTime="0.00" timeLoss="4.19" rerouteNo="1" devices="tripinfo_bike12 routing_bike12" vType="bike_bicycle" speedFactor="0.88" vaporized=""/>
    <tripinfo id="veh23" depart="116.00" departLane="6024091#5_2" departPos="5.10" departSpeed="0.00" departDelay="-0.90" arrival="194.00" arrivalLane="436291029_1" arrivalPos="42.06" arrivalSpeed="11.73" duration="78.00" routeLength="578.18" waitingTime="13.00" waitingCount="1" stopTime="0.00" timeLoss="26.51" rerouteNo="1" devices="tripinfo_veh23 routing_veh23" vType="veh_passenger" speedFactor="0.89" vaporized=""/>
    <tripinfo id="bus4" depart="101.00" departLane="-5955850#2_1" departPos="12.10" departSpeed="13.89" departDelay="-0.65" arrival="195.00" arrivalLane="593766962#0_1" arrivalPos="89.84" arrivalSpeed="7.21" duration="94.00" routeLength="1047.38" waitingTime="0.00" waitingCount="0" stopTime="0.00" timeLoss="18.48" rerouteNo="1" devices="tripinfo_bus4 routing_bus4" vType="bus_bus" speedFactor="1.00" vaporized=""/>
    <tripinfo id="veh24" depart="121.00" departLane="-593766960_1" departPos="5.10" departSpeed="0.00" departDelay="-0.98" arrival="199.00" arrivalLane="642361032_2" arrivalPos="73.86" arrivalSpeed="11.29" duration="78.00" routeLength="570.38" waitingTime="10.00" waitingCount="1" stopTime="0.00" timeLoss="25.37" rerouteNo="1" devices="tripinfo_veh24 routing_veh24" vType="veh_passenger" speedFactor="0.83" vaporized=""/>
    <tripinfo id="bike10" depart="96.00" departLane="578942372#1_0" departPos="1.70" departSpeed="0.00" departDelay="0.25" arrival="203.00" arrivalLane="578942357_0" arrivalPos="25.21" arrivalSpeed="5.13" duration="107.00" routeLength="343.68" waitingTime="28.00" waitingCount="2" stopTime="0.00" timeLoss="44.00" rerouteNo="1" devices="tripinfo_bike10 routing_bike10" vType="bike_bicycle" speedFactor="0.99" vaporized=""/>
    <tripinfo id="veh3" depart="15.00" departLane="89922370#0_1" departPos="5.10" departSpeed="13.03" departDelay="-0.25" arrival="204.00" arrivalLane="436291016#10_1" arrivalPos="38.29" arrivalSpeed="12.61" duration="189.00" routeLength="919.65" waitingTime="100.00" waitingCount="3" stopTime="0.00" timeLoss="116.86" rerouteNo="1" devices="tripinfo_veh3 routing_veh3" vType="veh_passenger" speedFactor="0.94" vaporized=""/>
    <tripinfo id="bike3" depart="28.00" departLane="6024091#2_2" departPos="1.70" departSpeed="0.00" departDelay="-0.73" arrival="204.00" arrivalLane="-578934698_0" arrivalPos="43.74" arrivalSpeed="5.20" duration="176.00" routeLength="668.68" waitingTime="39.00" waitingCount="2" stopTime="0.00" timeLoss="54.49" rerouteNo="1" devices="tripinfo_bike3 routing_bike3" vType="bike_bicycle" speedFactor="1.14" vaporized=""/>
    <tripinfo id="veh32" depart="162.00" departLane="419814433#0_1" departPos="5.10" departSpeed="13.96" departDelay="-0.64" arrival="206.00" arrivalLane="642361032_1" arrivalPos="73.86" arrivalSpeed="12.95" duration="44.00" routeLength="452.93" waitingTime="0.00" waitingCount="0" stopTime="0.00" timeLoss="10.21" rerouteNo="1" devices="tripinfo_veh32 routing_veh32" vType="veh_passenger" speedFactor="1.01" vaporized=""/>
    <tripinfo id="veh17" depart="86.00" departLane="-5955850#2_1" departPos="5.10" departSpeed="13.00" departDelay="-0.40" arrival="211.00" arrivalLane="-593766963_1" arrivalPos="7.49" arrivalSpeed="11.15" duration="125.00" routeLength="1212.96" waitingTime="0.00" waitingCount="0" stopTime="0.00" timeLoss="29.93" rerouteNo="1" devices="tripinfo_veh17 routing_veh17" vType="veh_passenger" speedFactor="0.94" vaporized=""/>
    <tripinfo id="bike17" depart="162.00" departLane="36054466#5_1" departPos="1.70" departSpeed="0.00" departDelay="-0.78" arrival="226.00" arrivalLane="578934699_0" arrivalPos="20.97" arrivalSpeed="5.25" duration="64.00" routeLength="261.50" waitingTime="5.00" waitingCount="1" stopTime="0.00" timeLoss="15.63" rerouteNo="1" devices="tripinfo_bike17 routing_bike17" vType="bike_bicycle" speedFactor="1.02" vaporized=""/>
    <tripinfo id="bus2" depart="50.00" departLane="436291064#1_4" departPos="12.10" departSpeed="0.00" departDelay="-0.82" arrival="233.00" arrivalLane="5955850#2_1" arrivalPos="551.96" arrivalSpeed="13.56" duration="183.00" routeLength="1106.33" waitingTime="59.00" waitingCount="3" stopTime="0.00" timeLoss="97.76" rerouteNo="1" devices="tripinfo_bus2 routing_bus2" vType="bus_bus" speedFactor="1.00" vaporized=""/>
    <tripinfo id="veh28" depart="142.00" departLane="436291021#0_2" departPos="5.10" departSpeed="15.72" departDelay="-0.31" arrival="235.00" arrivalLane="436291029_1" arrivalPos="42.06" arrivalSpeed="14.82" duration="93.00" routeLength="473.56" waitingTime="49.00" waitingCount="2" stopTime="0.00" timeLoss="61.49" rerouteNo="1" devices="tripinfo_veh28 routing_veh28" vType="veh_passenger" speedFactor="1.13" vaporized=""/>
    <tripinfo id="veh33" depart="167.00" departLane="89922370#0_2" departPos="5.10" departSpeed="16.28" departDelay="-0.72" arrival="235.00" arrivalLane="436291031_1" arrivalPos="27.40" arrivalSpeed="15.12" duration="68.00" routeLength="666.81" waitingTime="20.00" waitingCount="1" stopTime="0.00" timeLoss="26.94" rerouteNo="1" devices="tripinfo_veh33 routing_veh33" vType="veh_passenger" speedFactor="1.17" vaporized=""/>
    <tripinfo id="veh29" depart="147.00" departLane="419814433#4_1" departPos="5.10" departSpeed="0.00" departDelay="-0.39" arrival="237.00" arrivalLane="641705146#2_1" arrivalPos="169.11" arrivalSpeed="9.87" duration="90.00" routeLength="545.67" waitingTime="26.00" waitingCount="1" stopTime="0.00" timeLoss="39.65" rerouteNo="1" devices="tripinfo_veh29 routing_veh29" vType="veh_passenger" speedFactor="0.93" vaporized=""/>
    <tripinfo id="truck2" depart="63.00" departLane="436291064#1_4" departPos="7.20" departSpeed="0.00" departDelay="-0.53" arrival="238.00" arrivalLane="5955850#2_1" arrivalPos="551.96" arrivalSpeed="12.96" duration="175.00" routeLength="1111.23" waitingTime="45.00" waitingCount="3" stopTime="0.00" timeLoss="87.05" rerouteNo="1" devices="tripinfo_truck2 routing_truck2" vType="truck_truck" speedFactor="0.98" vaporized=""/>
    <tripinfo id="veh35" depart="177.00" departLane="6024091#0_2" departPos="5.10" departSpeed="11.40" departDelay="-0.89" arrival="240.00" arrivalLane="593766965_1" arrivalPos="2.11" arrivalSpeed="5.84" duration="63.00" routeLength="531.69" waitingTime="0.00" waitingCount="0" stopTime="0.00" timeLoss="20.62" rerouteNo="1" devices="tripinfo_veh35 routing_veh35" vType="veh_passenger" speedFactor="1.02" vaporized=""/>
    <tripinfo id="bike20" depart="191.00" departLane="578942354#1_0" departPos="1.70" departSpeed="0.00" departDelay="-0.51" arrival="240.00" arrivalLane="-419814433#4_1" arrivalPos="35.45" arrivalSpeed="5.43" duration="49.00" routeLength="229.82" waitingTime="0.00" waitingCount="0" stopTime="0.00" timeLoss="6.00" rerouteNo="1" devices="tripinfo_bike20 routing_bike20" vType="bike_bicycle" speedFactor="0.94" vaporized=""/>
    <tripinfo id="moto11" depart="186.00" departLane="419814433#1_1" departPos="2.30" departSpeed="0.00" departDelay="-0.36" arrival="241.00" arrivalLane="-5962129#5_1" arrivalPos="13.61" arrivalSpeed="14.41" duration="55.00" routeLength="540.14" waitingTime="3.00" waitingCount="2" stopTime="0.00" timeLoss="17.73" rerouteNo="1" devices="tripinfo_moto11 routing_moto11" vType="moto_motorcycle" speedFactor="1.10" vaporized=""/>
    <tripinfo id="veh13" depart="67.00" departLane="436291064#1_4" departPos="5.10" departSpeed="0.00" departDelay="0.93" arrival="243.00" arrivalLane="5955850#2_1" arrivalPos="551.96" arrivalSpeed="12.20" duration="176.00" routeLength="1113.33" waitingTime="41.00" waitingCount="3" stopTime="0.00" timeLoss="84.11" rerouteNo="1" devices="tripinfo_veh13 routing_veh13" vType="veh_passenger" speedFactor="0.93" vaporized=""/>
    <tripinfo id="veh31" depart="157.00" departLane="-5955850#0_1" departPos="5.10" departSpeed="0.00" departDelay="-0.56" arrival="243.00" arrivalLane="593766961_1" arrivalPos="76.48" arrivalSpeed="15.87" duration="86.00" routeLength="409.08" waitingTime="44.00" waitingCount="2" stopTime="0.00" timeLoss="59.15" rerouteNo="1" devices="tripinfo_veh31 routing_veh31" vType="veh_passenger" speedFactor="1.15" vaporized=""/>
    <tripinfo id="bike9" depart="86.00" departLane="578942372#2_0" departPos="1.70" departSpeed="0.00" departDelay="-0.18" arrival="244.00" arrivalLane="-184711452_0" arrivalPos="9.23" arrivalSpeed="5.28" duration="158.00" routeLength="536.37" waitingTime="43.00" waitingCount="2" stopTime="0.00" timeLoss="60.83" rerouteNo="1" devices="tripinfo_bike9 routing_bike9" vType="bike_bicycle" speedFactor="1.02" vaporized=""/>
    <tripinfo id="moto9" depart="152.00" departLane="641705063#0_1" departPos="2.30" departSpeed="0.00" departDelay="-0.47" arrival="245.00" arrivalLane="-419814433#0_1" arrivalPos="58.50" arrivalSpeed="13.34" duration="93.00" routeLength="362.32" waitingTime="57.00" waitingCount="2" stopTime="0.00" timeLoss="69.21" rerouteNo="1" devices="tripinfo_moto9 routing_moto9" vType="moto_motorcycle" speedFactor="1.17" vaporized=""/>
    <tripinfo id="bike15" depart="143.00" departLane="578942372#2_0" departPos="1.70" departSpeed="0.00" departDelay="-0.63" arrival="251.00" arrivalLane="578942362_0" arrivalPos="50.37" arrivalSpeed="5.25" duration="108.00" routeLength="313.86" waitingTime="37.00" waitingCount="1" stopTime="0.00" timeLoss="50.20" rerouteNo="1" devices="tripinfo_bike15 routing_bike15" vType="bike_bicycle" speedFactor="1.04" vaporized=""/>
    <tripinfo id="bike19" depart="181.00" departLane="5962129#1_1" departPos="1.70" departSpeed="0.00" departDelay="-0.93" arrival="253.00" arrivalLane="578934702_0" arrivalPos="76.94" arrivalSpeed="5.10" duration="72.00" routeLength="279.33" waitingTime="5.00" waitingCount="1" stopTime="0.00" timeLoss="19.78" rerouteNo="1" devices="tripinfo_bike19 routing_bike19" vType="bike_bicycle" speedFactor="0.97" vaporized=""/>
    <tripinfo id="truck4" depart="127.00" departLane="-5955850#2_1" departPos="7.20" departSpeed="14.15" departDelay="-0.06" arrival="255.00" arrivalLane="593766962#0_1" arrivalPos="89.84" arrivalSpeed="13.59" duration="128.00" routeLength="1052.28" waitingTime="28.00" waitingCount="2" stopTime="0.00" timeLoss="53.26" rerouteNo="1" devices="tripinfo_truck4 routing_truck4" vType="truck_truck" speedFactor="1.02" vaporized=""/>
    <tripinfo id="truck3" depart="95.00" departLane="89922370#0_2" departPos="7.20" departSpeed="14.53" departDelay="-0.30" arrival="260.00" arrivalLane="436291016#7_1" arrivalPos="8.35" arrivalSpeed="12.90" duration="165.00" routeLength="846.94" waitingTime="79.00" waitingCount="2" stopTime="0.00" timeLoss="105.45" rerouteNo="1" devices="tripinfo_truck3 routing_truck3" vType="truck_truck" speedFactor="1.05" vaporized=""/>
    <tripinfo id="bus3" depart="76.00" departLane="89922370#0_1" departPos="12.10" departSpeed="13.89" departDelay="-0.24" arrival="260.00" arrivalLane="436291016#7_2" arrivalPos="8.35" arrivalSpeed="12.44" duration="184.00" routeLength="847.18" waitingTime="66.00" waitingCount="6" stopTime="0.00" timeLoss="121.95" rerouteNo="1" devices="tripinfo_bus3 routing_bus3" vType="bus_bus" speedFactor="1.00" vaporized=""/>
    <tripinfo id="bike14" depart="134.00" departLane="5955850#0_1" departPos="1.70" departSpeed="0.00" departDelay="-0.06" arrival="261.00" arrivalLane="578934717#0_0" arrivalPos="1.59" arrivalSpeed="5.05" duration="127.00" routeLength="537.72" waitingTime="15.00" waitingCount="1" stopTime="0.00" timeLoss="28.50" rerouteNo="1" devices="tripinfo_bike14 routing_bike14" vType="bike_bicycle" speedFactor="0.91" vaporized=""/>
    <tripinfo id="veh37" depart="188.00" departLane="642337374#0_2" departPos="5.10" departSpeed="16.39" departDelay="-0.05" arrival="270.00" arrivalLane="419814433#2_1" arrivalPos="52.62" arrivalSpeed="15.60" duration="82.00" routeLength="521.96" waitingTime="30.00" waitingCount="2" stopTime="0.00" timeLoss="47.78" rerouteNo="1" devices="tripinfo_veh37 routing_veh37" vType="veh_passenger" speedFactor="1.18" vaporized=""/>
    <tripinfo id="bike27" depart="261.00" departLane="578934717#0_0" departPos="1.59" departSpeed="0.00" departDelay="2.46" arrival="270.00" arrivalLane="578934717#1_0" arrivalPos="20.89" arrivalSpeed="4.03" duration="9.00" routeLength="25.91" waitingTime="0.00" waitingCount="0" stopTime="0.00" timeLoss="2.21" rerouteNo="0" devices="tripinfo_bike27 routing_bike27" vType="bike_bicycle" speedFactor="0.82" vaporized=""/>
    <tripinfo id="veh30" depart="152.00" departLane="89927838#3_1" departPos="5.10" departSpeed="0.00" departDelay="-0.47" arrival="275.00" arrivalLane="593766962#0_1" arrivalPos="89.84" arrivalSpeed="15.12" duration="123.00" routeLength="491.99" waitingTime="49.00" waitingCount="3" stopTime="0.00" timeLoss="91.32" rerouteNo="1" devices="tripinfo_veh30 routing_veh30" vType="veh_passenger" speedFactor="1.18" vaporized=""/>
    <tripinfo id="veh38" depart="193.00" departLane="419814433#0_1" departPos="5.10" departSpeed="15.31" departDelay="-0.13" arrival="280.00" arrivalLane="642361032_1" arrivalPos="73.86" arrivalSpeed="14.51" duration="87.00" routeLength="452.93" waitingTime="41.00" waitingCount="1" stopTime="0.00" timeLoss="55.88" rerouteNo="1" devices="tripinfo_veh38 routing_veh38" vType="veh_passenger" speedFactor="1.10" vaporized=""/>
    <tripinfo id="moto10" depart="169.00" departLane="641705063#0_1" departPos="2.30" departSpeed="0.00" departDelay="-0.42" arrival="284.00" arrivalLane="5955850#2_1" arrivalPos="551.96" arrivalSpeed="12.70" duration="115.00" routeLength="1018.13" waitingTime="23.00" waitingCount="1" stopTime="0.00" timeLoss="40.37" rerouteNo="1" devices="tripinfo_moto10 routing_moto10" vType="moto_motorcycle" speedFactor="1.02" vaporized=""/>
    <tripinfo id="veh34" depart="172.00" departLane="-5955850#2_1" departPos="5.10" departSpeed="13.82" departDelay="-0.80" arrival="285.00" arrivalLane="436291016#8_3" arrivalPos="7.30" arrivalSpeed="12.54" duration="113.00" routeLength="733.09" waitingTime="49.00" waitingCount="1" stopTime="0.00" timeLoss="58.80" rerouteNo="1" devices="tripinfo_veh34 routing_veh34" vType="veh_passenger" speedFactor="0.99" vaporized=""/>
    <tripinfo id="bike8" depart="76.00" departLane="-578942367#2_0" departPos="1.70" departSpeed="0.00" departDelay="-0.60" arrival="290.00" arrivalLane="578934712_0" arrivalPos="3.62" arrivalSpeed="4.96" duration="214.00" routeLength="405.41" waitingTime="114.00" waitingCount="4" stopTime="0.00" timeLoss="140.11" rerouteNo="1" devices="tripinfo_bike8 routing_bike8" vType="bike_bicycle" speedFactor="1.12" vaporized=""/>
    <tripinfo id="bike11" depart="105.00" departLane="184711452_0" departPos="1.70" departSpeed="5.21" departDelay="-0.33" arrival="291.00" arrivalLane="-578934718#3_0" arrivalPos="48.58" arrivalSpeed="4.76" duration="186.00" routeLength="633.87" waitingTime="49.00" waitingCount="4" stopTime="0.00" timeLoss="70.58" rerouteNo="1" devices="tripinfo_bike11 routing_bike11" vType="bike_bicycle" speedFactor="0.94" vaporized=""/>
    <tripinfo id="veh40" depart="203.00" departLane="89927838#0_1" departPos="5.10" departSpeed="12.51" departDelay="-0.30" arrival="292.00" arrivalLane="642361032_1" arrivalPos="73.86" arrivalSpeed="11.81" duration="89.00" routeLength="562.64" waitingTime="11.00" waitingCount="1" stopTime="0.00" timeLoss="42.81" rerouteNo="1" devices="tripinfo_veh40 routing_veh40" vType="veh_passenger" speedFactor="0.90" vaporized=""/>
    <tripinfo id="bus5" depart="129.00" departLane="-5955850#2_1" departPos="12.10" departSpeed="13.66" departDelay="1.94" arrival="294.00" arrivalLane="436291016#3_1" arrivalPos="23.43" arrivalSpeed="13.81" duration="165.00" routeLength="1022.83" waitingTime="55.00" waitingCount="2" stopTime="0.00" timeLoss="88.41" rerouteNo="1" devices="tripinfo_bus5 routing_bus5" vType="bus_bus" speedFactor="1.00" vaporized=""/>