<?xml version="1.0" encoding="UTF-8"?>

<!-- generated on vie 11 oct 2019 17:14:53 -03 by Eclipse SUMO GUI Version 1.2.0
<configuration xmlns:xsi="http://www.w3.org/2001/XMLSchema-instance" xsi:noNamespaceSchemaLocation="http://sumo.dlr.de/xsd/sumoConfiguration.xsd">

    <input>
        <net-file value="MicroDescongest/osm.net.xml"/>
        <route-files value="MicroDescongest/osm.passenger.trips.xml,MicroDescongest/osm.truck.trips.xml,MicroDescongest/osm.bus.trips.xml,MicroDescongest/osm.motorcycle.trips.xml,MicroDescongest/osm.bicycle.trips.xml"/>
        <additional-files value="MicroDescongest/osm.poly.xml,MicroDescongest/e2corrected.add.xml"/>
    </input>

    <output>
        <tripinfo-output value="tripinfo.xml"/>
    </output>

    <processing>
        <step-method.ballistic value="true"/>
        <ignore-route-errors value="true"/>
    </processing>

    <routing>
        <device.rerouting.adaptation-steps value="180"/>
    </routing>

    <report>
        <verbose value="true"/>
        <duration-log.statistics value="true"/>
        <no-step-log value="true"/>
    </report>

    <traci_server>
        <remote-port value="40211"/>
    </traci_server>

    <gui_only>
        <gui-settings-file value="MicroDescongest/osm.view.xml"/>
    </gui_only>

</configuration>
-->

<tripinfos xmlns:xsi="http://www.w3.org/2001/XMLSchema-instance" xsi:noNamespaceSchemaLocation="http://sumo.dlr.de/xsd/tripinfo_file.xsd">
    <tripinfo id="moto0" depart="0.00" departLane="593766961_1" departPos="2.30" departSpeed="0.00" departDelay="0.00" arrival="54.00" arrivalLane="-419814433#1_1" arrivalPos="20.87" arrivalSpeed="11.55" duration="54.00" routeLength="403.45" waitingTime="9.00" waitingCount="3" stopTime="0.00" timeLoss="23.83" rerouteNo="1" devices="tripinfo_moto0 routing_moto0" vType="moto_motorcycle" speedFactor="1.03" vaporized=""/>
    <tripinfo id="truck0" depart="0.00" departLane="6024091#0_1" departPos="7.20" departSpeed="11.24" departDelay="0.00" arrival="69.00" arrivalLane="5955850#2_1" arrivalPos="551.96" arrivalSpeed="13.94" duration="69.00" routeLength="806.38" waitingTime="0.00" waitingCount="0" stopTime="0.00" timeLoss="6.13" rerouteNo="1" devices="tripinfo_truck0 routing_truck0" vType="truck_truck" speedFactor="1.01" vaporized=""/>
    <tripinfo id="bus0" depart="2.00" departLane="6024091#0_1" departPos="12.10" departSpeed="9.98" departDelay="2.00" arrival="74.00" arrivalLane="5955850#2_1" arrivalPos="551.96" arrivalSpeed="13.29" duration="72.00" routeLength="801.48" waitingTime="0.00" waitingCount="0" stopTime="0.00" timeLoss="8.70" rerouteNo="1" devices="tripinfo_bus0 routing_bus0" vType="bus_bus" speedFactor="1.00" vaporized=""/>
    <tripinfo id="veh0" depart="0.00" departLane="642337374#0_2" departPos="5.10" departSpeed="14.72" departDelay="0.00" arrival="86.00" arrivalLane="-5962129#2_1" arrivalPos="29.76" arrivalSpeed="14.61" duration="86.00" routeLength="638.07" waitingTime="18.00" waitingCount="3" stopTime="0.00" timeLoss="41.04" rerouteNo="1" devices="tripinfo_veh0 routing_veh0" vType="veh_passenger" speedFactor="1.06" vaporized=""/>
    <tripinfo id="bike5" depart="47.00" departLane="-578942364_0" departPos="1.70" departSpeed="5.56" departDelay="-0.88" arrival="95.00" arrivalLane="436291031_1" arrivalPos="27.40" arrivalSpeed="5.38" duration="48.00" routeLength="153.73" waitingTime="15.00" waitingCount="1" stopTime="0.00" timeLoss="19.61" rerouteNo="1" devices="tripinfo_bike5 routing_bike5" vType="bike_bicycle" speedFactor="1.02" vaporized=""/>
    <tripinfo id="moto1" depart="16.00" departLane="36054466#5_1" departPos="2.30" departSpeed="0.00" departDelay="-0.94" arrival="101.00" arrivalLane="36054466#0_1" arrivalPos="39.67" arrivalSpeed="10.96" duration="85.00" routeLength="546.43" waitingTime="17.00" waitingCount="2" stopTime="0.00" timeLoss="32.68" rerouteNo="1" devices="tripinfo_moto1 routing_moto1" vType="moto_motorcycle" speedFactor="0.83" vaporized=""/>
    <tripinfo id="veh3" depart="15.00" departLane="89922370#0_1" departPos="5.10" departSpeed="11.90" departDelay="-0.25" arrival="104.00" arrivalLane="436291016#10_1" arrivalPos="38.29" arrivalSpeed="11.58" duration="89.00" routeLength="919.65" waitingTime="1.00" waitingCount="1" stopTime="0.00" timeLoss="10.47" rerouteNo="1" devices="tripinfo_veh3 routing_veh3" vType="veh_passenger" speedFactor="0.86" vaporized=""/>
    <tripinfo id="moto4" depart="67.00" departLane="436291016#2_1" departPos="2.30" departSpeed="0.00" departDelay="-0.77" arrival="109.00" arrivalLane="-419814433#2_1" arrivalPos="52.62" arrivalSpeed="10.10" duration="42.00" routeLength="234.47" waitingTime="8.00" waitingCount="1" stopTime="0.00" timeLoss="18.75" rerouteNo="1" devices="tripinfo_moto4 routing_moto4" vType="moto_motorcycle" speedFactor="0.85" vaporized=""/>
    <tripinfo id="bike6" depart="57.00" departLane="-184708337#3_0" departPos="0.10" departSpeed="0.00" departDelay="-0.45" arrival="111.00" arrivalLane="-578942367#2_0" arrivalPos="7.50" arrivalSpeed="5.03" duration="54.00" routeLength="255.85" waitingTime="0.00" waitingCount="0" stopTime="0.00" timeLoss="6.02" rerouteNo="1" devices="tripinfo_bike6 routing_bike6" vType="bike_bicycle" speedFactor="0.97" vaporized=""/>
    <tripinfo id="veh1" depart="5.00" departLane="641705063#3_2" departPos="5.10" departSpeed="0.00" departDelay="-0.08" arrival="115.00" arrivalLane="5955850#2_1" arrivalPos="551.96" arrivalSpeed="12.49" duration="110.00" routeLength="875.88" waitingTime="18.00" waitingCount="3" stopTime="0.00" timeLoss="39.80" rerouteNo="1" devices="tripinfo_veh1 routing_veh1" vType="veh_passenger" speedFactor="0.94" vaporized=""/>
    <tripinfo id="veh7" depart="35.00" departLane="6024091#0_2" departPos="5.10" departSpeed="11.71" departDelay="-0.58" arrival="115.00" arrivalLane="-593766960_1" arrivalPos="37.96" arrivalSpeed="13.53" duration="80.00" routeLength="849.56" waitingTime="1.00" waitingCount="1" stopTime="0.00" timeLoss="16.44" rerouteNo="1" devices="tripinfo_veh7 routing_veh7" vType="veh_passenger" speedFactor="1.05" vaporized=""/>
    <tripinfo id="veh5" depart="25.00" departLane="436291064#0_4" departPos="5.10" departSpeed="0.00" departDelay="-0.41" arrival="116.00" arrivalLane="642751754#1_1" arrivalPos="56.13" arrivalSpeed="14.21" duration="91.00" routeLength="609.09" waitingTime="21.00" waitingCount="2" stopTime="0.00" timeLoss="43.45" rerouteNo="1" devices="tripinfo_veh5 routing_veh5" vType="veh_passenger" speedFactor="1.03" vaporized=""/>
    <tripinfo id="bike8" depart="76.00" departLane="-578942364_0" departPos="1.70" departSpeed="5.56" departDelay="-0.60" arrival="116.00" arrivalLane="578934700#1_0" arrivalPos="40.07" arrivalSpeed="5.47" duration="40.00" routeLength="195.54" waitingTime="0.00" waitingCount="0" stopTime="0.00" timeLoss="4.32" rerouteNo="1" devices="tripinfo_bike8 routing_bike8" vType="bike_bicycle" speedFactor="1.12" vaporized=""/>
    <tripinfo id="bike1" depart="9.00" departLane="-593766962#1_1" departPos="1.70" departSpeed="5.56" departDelay="-0.58" arrival="119.00" arrivalLane="-578942372#1_0" arrivalPos="9.25" arrivalSpeed="4.64" duration="110.00" routeLength="484.36" waitingTime="7.00" waitingCount="1" stopTime="0.00" timeLoss="19.46" rerouteNo="1" devices="tripinfo_bike1 routing_bike1" vType="bike_bicycle" speedFactor="0.89" vaporized=""/>
    <tripinfo id="veh16" depart="81.00" departLane="573865733#0_1" departPos="5.10" departSpeed="13.00" departDelay="-0.32" arrival="119.00" arrivalLane="436291010_2" arrivalPos="30.97" arrivalSpeed="7.06" duration="38.00" routeLength="331.69" waitingTime="0.00" waitingCount="0" stopTime="0.00" timeLoss="12.50" rerouteNo="1" devices="tripinfo_veh16 routing_veh16" vType="veh_passenger" speedFactor="0.94" vaporized=""/>
    <tripinfo id="veh2" depart="10.00" departLane="436291016#2_1" departPos="5.10" departSpeed="0.00" departDelay="-0.16" arrival="124.00" arrivalLane="278328405#1_1" arrivalPos="28.73" arrivalSpeed="12.01" duration="114.00" routeLength="551.23" waitingTime="50.00" waitingCount="2" stopTime="0.00" timeLoss="68.56" rerouteNo="1" devices="tripinfo_veh2 routing_veh2" vType="veh_passenger" speedFactor="0.94" vaporized=""/>
    <tripinfo id="veh4" depart="20.00" departLane="-5955850#2_1" departPos="5.10" departSpeed="15.15" departDelay="-0.33" arrival="124.00" arrivalLane="-5962129#4_1" arrivalPos="6.74" arrivalSpeed="13.99" duration="104.00" routeLength="1276.32" waitingTime="0.00" waitingCount="0" stopTime="0.00" timeLoss="18.33" rerouteNo="1" devices="tripinfo_veh4 routing_veh4" vType="veh_passenger" speedFactor="1.09" vaporized=""/>
    <tripinfo id="veh12" depart="60.00" departLane="89927838#0_1" departPos="5.10" departSpeed="12.87" departDelay="-0.99" arrival="128.00" arrivalLane="593766962#0_1" arrivalPos="89.84" arrivalSpeed="12.46" duration="68.00" routeLength="560.71" waitingTime="8.00" waitingCount="2" stopTime="0.00" timeLoss="22.73" rerouteNo="1" devices="tripinfo_veh12 routing_veh12" vType="veh_passenger" speedFactor="0.93" vaporized=""/>
    <tripinfo id="moto2" depart="33.00" departLane="5962129#5_1" departPos="2.30" departSpeed="0.00" departDelay="-0.88" arrival="130.00" arrivalLane="5955850#0_1" arrivalPos="73.56" arrivalSpeed="9.56" duration="97.00" routeLength="677.81" waitingTime="25.00" waitingCount="2" stopTime="0.00" timeLoss="39.85" rerouteNo="1" devices="tripinfo_moto2 routing_moto2" vType="moto_motorcycle" speedFactor="0.88" vaporized=""/>
    <tripinfo id="bus1" depart="25.00" departLane="641705064#0_2" departPos="12.10" departSpeed="0.00" departDelay="-0.41" arrival="143.00" arrivalLane="5955850#2_1" arrivalPos="551.96" arrivalSpeed="13.66" duration="118.00" routeLength="830.56" waitingTime="26.00" waitingCount="2" stopTime="0.00" timeLoss="55.66" rerouteNo="1" devices="tripinfo_bus1 routing_bus1" vType="bus_bus" speedFactor="1.00" vaporized=""/>
    <tripinfo id="veh9" depart="45.00" departLane="-5955850#2_1" departPos="5.10" departSpeed="15.60" departDelay="-0.74" arrival="146.00" arrivalLane="36054466#8_1" arrivalPos="8.82" arrivalSpeed="9.71" duration="101.00" routeLength="1188.44" waitingTime="1.00" waitingCount="1" stopTime="0.00" timeLoss="22.55" rerouteNo="1" devices="tripinfo_veh9 routing_veh9" vType="veh_passenger" speedFactor="1.12" vaporized=""/>
    <tripinfo id="truck1" depart="31.00" departLane="641705064#0_2" departPos="7.20" departSpeed="0.00" departDelay="-0.77" arrival="147.00" arrivalLane="5955850#2_1" arrivalPos="551.96" arrivalSpeed="14.22" duration="116.00" routeLength="835.46" waitingTime="16.00" waitingCount="2" stopTime="0.00" timeLoss="55.18" rerouteNo="1" devices="tripinfo_truck1 routing_truck1" vType="truck_truck" speedFactor="1.04" vaporized=""/>
    <tripinfo id="veh15" depart="76.00" departLane="642337374#0_2" departPos="5.10" departSpeed="13.08" departDelay="-0.24" arrival="149.00" arrivalLane="436291016#10_2" arrivalPos="38.29" arrivalSpeed="12.94" duration="73.00" routeLength="533.09" waitingTime="10.00" waitingCount="3" stopTime="0.00" timeLoss="30.70" rerouteNo="1" devices="tripinfo_veh15 routing_veh15" vType="veh_passenger" speedFactor="0.94" vaporized=""/>
    <tripinfo id="moto7" depart="118.00" departLane="593766963_1" departPos="2.30" departSpeed="0.00" departDelay="-0.59" arrival="150.00" arrivalLane="436291020#2_1" arrivalPos="7.40" arrivalSpeed="15.94" duration="32.00" routeLength="203.12" waitingTime="13.00" waitingCount="1" stopTime="0.00" timeLoss="18.24" rerouteNo="1" devices="tripinfo_moto7 routing_moto7" vType="moto_motorcycle" speedFactor="1.17" vaporized=""/>
    <tripinfo id="bike0" depart="0.00" departLane="578934713#0_0" departPos="1.70" departSpeed="0.00" departDelay="0.00" arrival="153.00" arrivalLane="-184711460_0" arrivalPos="70.26" arrivalSpeed="4.98" duration="153.00" routeLength="659.72" waitingTime="12.00" waitingCount="2" stopTime="0.00" timeLoss="32.76" rerouteNo="1" devices="tripinfo_bike0 routing_bike0" vType="bike_bicycle" speedFactor="1.05" vaporized=""/>
    <tripinfo id="veh18" depart="91.00" departLane="5962129#2_1" departPos="5.10" departSpeed="0.00" departDelay="-0.48" arrival="153.00" arrivalLane="436291029_1" arrivalPos="42.06" arrivalSpeed="13.25" duration="62.00" routeLength="469.22" waitingTime="13.00" waitingCount="1" stopTime="0.00" timeLoss="26.57" rerouteNo="1" devices="tripinfo_veh18 routing_veh18" vType="veh_passenger" speedFactor="1.02" vaporized=""/>
    <tripinfo id="veh10" depart="50.00" departLane="-5955850#2_1" departPos="5.10" departSpeed="13.77" departDelay="-0.82" arrival="156.00" arrivalLane="436291011_1" arrivalPos="66.20" arrivalSpeed="12.83" duration="106.00" routeLength="950.42" waitingTime="16.00" waitingCount="2" stopTime="0.00" timeLoss="31.14" rerouteNo="1" devices="tripinfo_veh10 routing_veh10" vType="veh_passenger" speedFactor="0.99" vaporized=""/>
    <tripinfo id="veh22" depart="111.00" departLane="573865733#0_1" departPos="5.10" departSpeed="12.36" departDelay="-0.81" arrival="162.00" arrivalLane="278328405#0_1" arrivalPos="66.05" arrivalSpeed="12.22" duration="51.00" routeLength="456.42" waitingTime="3.00" waitingCount="1" stopTime="0.00" timeLoss="12.93" rerouteNo="1" devices="tripinfo_veh22 routing_veh22" vType="veh_passenger" speedFactor="0.89" vaporized=""/>
    <tripinfo id="veh19" depart="96.00" departLane="419814433#4_1" departPos="5.10" departSpeed="0.00" departDelay="-0.57" arrival="174.00" arrivalLane="593766962#0_1" arrivalPos="89.84" arrivalSpeed="13.05" duration="78.00" routeLength="608.53" waitingTime="11.00" waitingCount="3" stopTime="0.00" timeLoss="31.78" rerouteNo="1" devices="tripinfo_veh19 routing_veh19" vType="veh_passenger" speedFactor="1.01" vaporized=""/>
    <tripinfo id="veh21" depart="106.00" departLane="436291013_2" departPos="5.10" departSpeed="0.00" departDelay="-0.73" arrival="177.00" arrivalLane="593766962#0_1" arrivalPos="89.84" arrivalSpeed="13.47" duration="71.00" routeLength="630.92" waitingTime="5.00" waitingCount="2" stopTime="0.00" timeLoss="22.53" rerouteNo="1" devices="tripinfo_veh21 routing_veh21" vType="veh_passenger" speedFactor="0.98" vaporized=""/>
    <tripinfo id="bus3" depart="76.00" departLane="89922370#0_1" departPos="12.10" departSpeed="13.89" departDelay="-0.24" arrival="177.00" arrivalLane="436291016#7_1" arrivalPos="8.35" arrivalSpeed="12.16" duration="101.00" routeLength="836.90" waitingTime="21.00" waitingCount="2" stopTime="0.00" timeLoss="39.82" rerouteNo="1" devices="tripinfo_bus3 routing_bus3" vType="bus_bus" speedFactor="1.00" vaporized=""/>
    <tripinfo id="truck3" depart="95.00" departLane="89922370#0_2" departPos="7.20" departSpeed="14.15" departDelay="-0.30" arrival="181.00" arrivalLane="436291016#7_1" arrivalPos="8.35" arrivalSpeed="13.80" duration="86.00" routeLength="841.80" waitingTime="4.00" waitingCount="1" stopTime="0.00" timeLoss="25.19" rerouteNo="1" devices="tripinfo_truck3 routing_truck3" vType="truck_truck" speedFactor="1.02" vaporized=""/>
    <tripinfo id="bike15" depart="143.00" departLane="578942371#2_0" departPos="1.70" departSpeed="0.00" departDelay="-0.63" arrival="184.00" arrivalLane="578942361#0_0" arrivalPos="8.92" arrivalSpeed="4.85" duration="41.00" routeLength="172.54" waitingTime="0.00" waitingCount="0" stopTime="0.00" timeLoss="7.12" rerouteNo="1" devices="tripinfo_bike15 routing_bike15" vType="bike_bicycle" speedFactor="0.91" vaporized=""/>
    <tripinfo id="moto6" depart="101.00" departLane="-419814433#4_1" departPos="2.30" departSpeed="0.00" departDelay="-0.65" arrival="188.00" arrivalLane="234953562_2" arrivalPos="44.27" arrivalSpeed="7.53" duration="87.00" routeLength="497.34" waitingTime="15.00" waitingCount="3" stopTime="0.00" timeLoss="39.72" rerouteNo="1" devices="tripinfo_moto6 routing_moto6" vType="moto_motorcycle" speedFactor="0.85" vaporized=""/>
    <tripinfo id="bike2" depart="19.00" departLane="578942360#1_0" departPos="1.70" departSpeed="0.00" departDelay="-0.15" arrival="191.00" arrivalLane="578942331_0" arrivalPos="32.86" arrivalSpeed="5.33" duration="172.00" routeLength="708.63" waitingTime="24.00" waitingCount="1" stopTime="0.00" timeLoss="43.37" rerouteNo="1" devices="tripinfo_bike2 routing_bike2" vType="bike_bicycle" speedFactor="1.14" vaporized=""/>
    <tripinfo id="veh28" depart="142.00" departLane="436291021#0_2" departPos="5.10" departSpeed="12.94" departDelay="-0.31" arrival="192.00" arrivalLane="436291029_1" arrivalPos="42.06" arrivalSpeed="11.65" duration="50.00" routeLength="473.56" waitingTime="4.00" waitingCount="1" stopTime="0.00" timeLoss="12.57" rerouteNo="1" devices="tripinfo_veh28 routing_veh28" vType="veh_passenger" speedFactor="0.93" vaporized=""/>
    <tripinfo id="moto9" depart="152.00" departLane="641705063#0_1" departPos="2.30" departSpeed="0.00" departDelay="-0.47" arrival="192.00" arrivalLane="-419814433#0_1" arrivalPos="58.50" arrivalSpeed="14.04" duration="40.00" routeLength="362.32" waitingTime="3.00" waitingCount="1" stopTime="0.00" timeLoss="12.32" rerouteNo="1" devices="tripinfo_moto9 routing_moto9" vType="moto_motorcycle" speedFactor="1.02" vaporized=""/>
    <tripinfo id="bus2" depart="50.00" departLane="436291064#1_4" departPos="12.10" departSpeed="0.00" departDelay="-0.82" arrival="193.00" arrivalLane="5955850#2_1" arrivalPos="551.96" arrivalSpeed="13.66" duration="143.00" routeLength="1117.41" waitingTime="17.00" waitingCount="2" stopTime="0.00" timeLoss="57.63" rerouteNo="1" devices="tripinfo_bus2 routing_bus2" vType="bus_bus" speedFactor="1.00" vaporized=""/>
    <tripinfo id="bike7" depart="67.00" departLane="578934714_0" departPos="1.70" departSpeed="5.56" departDelay="-0.03" arrival="194.00" arrivalLane="578934689_0" arrivalPos="60.62" arrivalSpeed="4.97" duration="127.00" routeLength="472.05" waitingTime="25.00" waitingCount="2" stopTime="0.00" timeLoss="42.19" rerouteNo="1" devices="tripinfo_bike7 routing_bike7" vType="bike_bicycle" speedFactor="1.08" vaporized=""/>
    <tripinfo id="veh24" depart="121.00" departLane="-593766960_1" departPos="5.10" departSpeed="0.00" departDelay="-0.98" arrival="198.00" arrivalLane="642361032_2" arrivalPos="73.86" arrivalSpeed="10.83" duration="77.00" routeLength="565.21" waitingTime="7.00" waitingCount="2" stopTime="0.00" timeLoss="27.95" rerouteNo="1" devices="tripinfo_veh24 routing_veh24" vType="veh_passenger" speedFactor="0.87" vaporized=""/>
    <tripinfo id="bike12" depart="114.00" departLane="642337373_1" departPos="1.70" departSpeed="0.00" departDelay="-0.91" arrival="199.00" arrivalLane="184708337#3_0" arrivalPos="0.10" arrivalSpeed="4.22" duration="85.00" routeLength="203.33" waitingTime="33.00" waitingCount="2" stopTime="0.00" timeLoss="46.89" rerouteNo="1" devices="tripinfo_bike12 routing_bike12" vType="bike_bicycle" speedFactor="0.88" vaporized=""/>
    <tripinfo id="bike11" depart="105.00" departLane="-89927838#3_1" departPos="1.70" departSpeed="0.00" departDelay="-0.33" arrival="201.00" arrivalLane="-578934718#1_0" arrivalPos="6.28" arrivalSpeed="4.80" duration="96.00" routeLength="438.50" waitingTime="0.00" waitingCount="0" stopTime="0.00" timeLoss="14.79" rerouteNo="1" devices="tripinfo_bike11 routing_bike11" vType="bike_bicycle" speedFactor="0.94" vaporized=""/>
    <tripinfo id="veh29" depart="147.00" departLane="419814433#4_1" departPos="5.10" departSpeed="0.00" departDelay="-0.39" arrival="203.00" arrivalLane="641705146#2_1" arrivalPos="169.11" arrivalSpeed="12.22" duration="56.00" routeLength="545.67" waitingTime="2.00" waitingCount="1" stopTime="0.00" timeLoss="15.41" rerouteNo="1" devices="tripinfo_veh29 routing_veh29" vType="veh_passenger" speedFactor="1.18" vaporized=""/>
    <tripinfo id="bike10" depart="96.00" departLane="578942371#2_0" departPos="1.70" departSpeed="0.00" departDelay="0.25" arrival="207.00" arrivalLane="578942355_0" arrivalPos="5.69" arrivalSpeed="5.32" duration="111.00" routeLength="471.64" waitingTime="8.00" waitingCount="2" stopTime="0.00" timeLoss="24.67" rerouteNo="1" devices="tripinfo_bike10 routing_bike10" vType="bike_bicycle" speedFactor="0.99" vaporized=""/>
    <tripinfo id="bike16" depart="153.00" departLane="436291031_3" departPos="1.70" departSpeed="0.00" departDelay="-0.21" arrival="207.00" arrivalLane="642361032_1" arrivalPos="73.86" arrivalSpeed="5.12" duration="54.00" routeLength="204.07" waitingTime="8.00" waitingCount="1" stopTime="0.00" timeLoss="16.26" rerouteNo="1" devices="tripinfo_bike16 routing_bike16" vType="bike_bicycle" speedFactor="1.04" vaporized=""/>
    <tripinfo id="bike9" depart="86.00" departLane="578942372#0_0" departPos="1.70" departSpeed="0.00" departDelay="-0.18" arrival="217.00" arrivalLane="-184708337#1_0" arrivalPos="18.86" arrivalSpeed="5.13" duration="131.00" routeLength="408.53" waitingTime="38.00" waitingCount="2" stopTime="0.00" timeLoss="56.63" rerouteNo="1" devices="tripinfo_bike9 routing_bike9" vType="bike_bicycle" speedFactor="1.02" vaporized=""/>
    <tripinfo id="veh17" depart="86.00" departLane="-5955850#2_1" departPos="5.10" departSpeed="16.09" departDelay="-0.40" arrival="218.00" arrivalLane="-593766963_1" arrivalPos="7.49" arrivalSpeed="15.49" duration="132.00" routeLength="1212.96" waitingTime="27.00" waitingCount="2" stopTime="0.00" timeLoss="55.73" rerouteNo="1" devices="tripinfo_veh17 routing_veh17" vType="veh_passenger" speedFactor="1.16" vaporized=""/>
    <tripinfo id="veh26" depart="132.00" departLane="642337374#0_1" departPos="5.10" departSpeed="13.18" departDelay="-0.14" arrival="218.00" arrivalLane="642751754#0_1" arrivalPos="41.43" arrivalSpeed="13.09" duration="86.00" routeLength="460.57" waitingTime="23.00" waitingCount="1" stopTime="0.00" timeLoss="49.96" rerouteNo="1" devices="tripinfo_veh26 routing_veh26" vType="veh_passenger" speedFactor="0.95" vaporized=""/>
    <tripinfo id="veh23" depart="116.00" departLane="6024091#5_2" departPos="5.10" departSpeed="0.00" departDelay="-0.90" arrival="221.00" arrivalLane="436291029_1" arrivalPos="42.06" arrivalSpeed="10.70" duration="105.00" routeLength="578.19" waitingTime="26.00" waitingCount="3" stopTime="0.00" timeLoss="49.95" rerouteNo="1" devices="tripinfo_veh23 routing_veh23" vType="veh_passenger" speedFactor="0.83" vaporized=""/>
    <tripinfo id="veh32" depart="162.00" departLane="419814433#0_1" departPos="5.10" departSpeed="16.28" departDelay="-0.64" arrival="223.00" arrivalLane="642361032_1" arrivalPos="73.86" arrivalSpeed="15.71" duration="61.00" routeLength="452.93" waitingTime="16.00" waitingCount="2" stopTime="0.00" timeLoss="32.42" rerouteNo="1" devices="tripinfo_veh32 routing_veh32" vType="veh_passenger" speedFactor="1.17" vaporized=""/>
    <tripinfo id="truck2" depart="63.00" departLane="436291064#1_4" departPos="7.20" departSpeed="0.00" departDelay="-0.53" arrival="225.00" arrivalLane="5955850#2_1" arrivalPos="551.96" arrivalSpeed="14.14" duration="162.00" routeLength="1122.31" waitingTime="31.00" waitingCount="4" stopTime="0.00" timeLoss="80.34" rerouteNo="1" devices="tripinfo_truck2 routing_truck2" vType="truck_truck" speedFactor="1.05" vaporized=""/>
    <tripinfo id="bike14" depart="134.00" departLane="593766964_1" departPos="1.70" departSpeed="0.00" departDelay="-0.06" arrival="232.00" arrivalLane="578934709#1_0" arrivalPos="9.74" arrivalSpeed="4.45" duration="98.00" routeLength="444.88" waitingTime="3.00" waitingCount="1" stopTime="0.00" timeLoss="15.73" rerouteNo="1" devices="tripinfo_bike14 routing_bike14" vType="bike_bicycle" speedFactor="0.91" vaporized=""/>
    <tripinfo id="bike20" depart="191.00" departLane="578934724#2_0" departPos="1.70" departSpeed="0.00" departDelay="-0.51" arrival="234.00" arrivalLane="-419814433#1_1" arrivalPos="20.87" arrivalSpeed="5.32" duration="43.00" routeLength="151.96" waitingTime="4.00" waitingCount="1" stopTime="0.00" timeLoss="13.99" rerouteNo="1" devices="tripinfo_bike20 routing_bike20" vType="bike_bicycle" speedFactor="0.94" vaporized=""/>
    <tripinfo id="veh13" depart="67.00" departLane="436291064#1_4" departPos="5.10" departSpeed="0.00" departDelay="0.93" arrival="235.00" arrivalLane="5955850#2_1" arrivalPos="551.96" arrivalSpeed="11.87" duration="168.00" routeLength="1124.41" waitingTime="26.00" waitingCount="4" stopTime="0.00" timeLoss="70.63" rerouteNo="1" devices="tripinfo_veh13 routing_veh13" vType="veh_passenger" speedFactor="0.88" vaporized=""/>
    <tripinfo id="veh33" depart="167.00" departLane="89922370#0_2" departPos="5.10" departSpeed="13.82" departDelay="-0.72" arrival="235.00" arrivalLane="436291031_2" arrivalPos="27.40" arrivalSpeed="8.13" duration="68.00" routeLength="666.81" waitingTime="8.00" waitingCount="1" stopTime="0.00" timeLoss="19.92" rerouteNo="1" devices="tripinfo_veh33 routing_veh33" vType="veh_passenger" speedFactor="0.99" vaporized=""/>
    <tripinfo id="bus4" depart="101.00" departLane="-5955850#2_1" departPos="12.10" departSpeed="13.89" departDelay="-0.65" arrival="235.00" arrivalLane="593766962#0_1" arrivalPos="89.84" arrivalSpeed="13.41" duration="134.00" routeLength="1047.38" waitingTime="32.00" waitingCount="2" stopTime="0.00" timeLoss="57.88" rerouteNo="1" devices="tripinfo_bus4 routing_bus4" vType="bus_bus" speedFactor="1.00" vaporized=""/>
    <tripinfo id="veh31" depart="157.00" departLane="-5955850#0_1" departPos="5.10" departSpeed="0.00" departDelay="-0.56" arrival="236.00" arrivalLane="593766961_1" arrivalPos="76.48" arrivalSpeed="13.34" duration="79.00" routeLength="409.08" waitingTime="28.00" waitingCount="3" stopTime="0.00" timeLoss="48.29" rerouteNo="1" devices="tripinfo_veh31 routing_veh31" vType="veh_passenger" speedFactor="1.01" vaporized=""/>
    <tripinfo id="veh34" depart="172.00" departLane="-5955850#2_1" departPos="5.10" departSpeed="14.16" departDelay="-0.80" arrival="245.00" arrivalLane="436291016#8_3" arrivalPos="7.30" arrivalSpeed="13.06" duration="73.00" routeLength="733.09" waitingTime="0.00" waitingCount="0" stopTime="0.00" timeLoss="20.35" rerouteNo="1" devices="tripinfo_veh34 routing_veh34" vType="veh_passenger" speedFactor="1.02" vaporized=""/>
    <tripinfo id="bus5" depart="129.00" departLane="-5955850#2_1" departPos="12.10" departSpeed="13.89" departDelay="1.94" arrival="250.00" arrivalLane="436291016#3_1" arrivalPos="23.43" arrivalSpeed="9.08" duration="121.00" routeLength="1022.83" waitingTime="10.00" waitingCount="2" stopTime="0.00" timeLoss="44.62" rerouteNo="1" devices="tripinfo_bus5 routing_bus5" vType="bus_bus" speedFactor="1.00" vaporized=""/>
    <tripinfo id="veh38" depart="193.00" departLane="419814433#0_1" departPos="5.10" departSpeed="12.51" departDelay="-0.13" arrival="251.00" arrivalLane="642361032_1" arrivalPos="73.86" arrivalSpeed="11.73" duration="58.00" routeLength="452.93" waitingTime="1.00" waitingCount="1" stopTime="0.00" timeLoss="20.61" rerouteNo="1" devices="tripinfo_veh38 routing_veh38" vType="veh_passenger" speedFactor="0.90" vaporized=""/>
    <tripinfo id="bike19" depart="186.00" departLane="5955850#1_1" departPos="1.70" departSpeed="0.00" departDelay="4.07" arrival="256.00" arrivalLane="578934699_0" arrivalPos="20.97" arrivalSpeed="5.15" duration="70.00" routeLength="252.53" waitingTime="5.00" waitingCount="2" stopTime="0.00" timeLoss="22.65" rerouteNo="1" devices="tripinfo_bike19 routing_bike19" vType="bike_bicycle" speedFactor="0.97" vaporized=""/>
    <tripinfo id="veh25" depart="128.00" departLane="436291013_2" departPos="5.10" departSpeed="0.00" departDelay="0.94" arrival="258.00" arrivalLane="-593766965_1" arrivalPos="2.11" arrivalSpeed="12.32" duration="130.00" routeLength="816.89" waitingTime="27.00" waitingCount="3" stopTime="0.00" timeLoss="62.51" rerouteNo="1" devices="tripinfo_veh25 routing_veh25" vType="veh_passenger" speedFactor="0.92" vaporized=""/>
    <tripinfo id="bus6" depart="152.00" departLane="89922370#0_1" departPos="12.10" departSpeed="13.89" departDelay="-0.47" arrival="261.00" arrivalLane="641705146#2_1" arrivalPos="169.11" arrivalSpeed="10.76" duration="109.00" routeLength="1098.24" waitingTime="2.00" waitingCount="1" stopTime="0.00" timeLoss="22.33" rerouteNo="1" devices="tripinfo_bus6 routing_bus6" vType="bus_bus" speedFactor="1.00" vaporized=""/>
    <tripinfo id="veh37" depart="188.00" departLane="642337374#0_2" departPos="5.10" departSpeed="15.31" departDelay="-0.05" arrival="264.00" arrivalLane="419814433#2_1" arrivalPos="52.62" arrivalSpeed="14.40" duration="76.00" routeLength="527.84" waitingTime="20.00" waitingCount="2" stopTime="0.00" timeLoss="38.55" rerouteNo="1" devices="tripinfo_veh37 routing_veh37" vType="veh_passenger" speedFactor="1.10" vaporized=""/>
    <tripinfo id="veh35" depart="177.00" departLane="6024091#0_2" departPos="5.10" departSpeed="10.88" departDelay="-0.89" arrival="268.00" arrivalLane="593766965_1" arrivalPos="2.11" arrivalSpeed="8.61" duration="91.00" routeLength="531.69" waitingTime="24.00" waitingCount="5" stopTime="0.00" timeLoss="48.16" rerouteNo="1" devices="tripinfo_veh35 routing_veh35" vType="veh_passenger" speedFactor="0.97" vaporized=""/>
    <tripinfo id="truck4" depart="127.00" departLane="-5955850#2_1" departPos="7.20" departSpeed="14.19" departDelay="-0.06" arrival="268.00" arrivalLane="593766962#0_1" arrivalPos="89.84" arrivalSpeed="13.77" duration="141.00" routeLength="1052.28" waitingTime="31.00" waitingCount="3" stopTime="0.00" timeLoss="66.56" rerouteNo="1" devices="tripinfo_truck4 routing_truck4" vType="truck_truck" speedFactor="1.02" vaporized=""/>
    <tripinfo id="bus8" depart="203.00" departLane="89922370#0_2" departPos="12.10" departSpeed="13.89" departDelay="-0.30" arrival="268.00" arrivalLane="436291064#0_1" arrivalPos="5.11" arrivalSpeed="11.86" duration="65.00" routeLength="705.97" waitingTime="0.00" waitingCount="0" stopTime="0.00" timeLoss="13.61" rerouteNo="1" devices="tripinfo_bus8 routing_bus8" vType="bus_bus" speedFactor="1.00" vaporized=""/>